 argument  1 = xyz102.in
                                         
                                         


             Northwest Computational Chemistry Package (NWChem) 7.2.3
             --------------------------------------------------------


                    Environmental Molecular Sciences Laboratory
                       Pacific Northwest National Laboratory
                                Richland, WA 99352

                              Copyright (c) 1994-2022
                       Pacific Northwest National Laboratory
                            Battelle Memorial Institute

             NWChem is an open-source computational chemistry package
                        distributed under the terms of the
                      Educational Community License (ECL) 2.0
             A copy of the license is included with this distribution
                              in the LICENSE.TXT file

                                  ACKNOWLEDGMENT
                                  --------------

            This software and its documentation were developed at the
            EMSL at Pacific Northwest National Laboratory, a multiprogram
            national laboratory, operated for the U.S. Department of Energy
            by Battelle under Contract Number DE-AC05-76RL01830. Support
            for this work was provided by the Department of Energy Office
            of Biological and Environmental Research, Office of Basic
            Energy Sciences, and the Office of Advanced Scientific Computing.


           Job information
           ---------------

    hostname        = gpu003
    program         = /home/rrichard/nwchem/bin/LINUX64/nwchem
    date            = Tue Jul 15 10:57:37 2025

    compiled        = Mon_Jul_07_13:04:19_2025
    source          = /home/rrichard/nwchem
    nwchem branch   = 7.2.3
    nwchem revision = v7.2.0-beta1-1473-g5687662257
    ga revision     = 5.9.2
    use scalapack   = T
    input           = xyz102.in
    prefix          = xyz102.
    data base       = ./xyz102.db
    status          = startup
    nproc           =        2
    time left       =     -1s



           Memory information
           ------------------

    heap     =    431126725 doubles =     3289.2 Mbytes
    stack    =    431126721 doubles =     3289.2 Mbytes
    global   =    246358129 doubles =     1879.6 Mbytes (distinct from heap & stack)
    total    =   1108611575 doubles =     8458.0 Mbytes
    verify   = yes
    hardfail = no 


           Directory information
           ---------------------

  0 permanent = .
  0 scratch   = .




                                NWChem Input Module
                                -------------------



 Scaling coordinates for geometry "geometry" by  1.889725989
 (inverse scale =  0.529177249)

 C1  symmetry detected

          ------
          auto-z
          ------
  no constraints, skipping    0.0000000000000000     
  no constraints, skipping    0.0000000000000000     


                             Geometry "geometry" -> ""
                             -------------------------

 Output coordinates in angstroms (scale by  1.889725989 to convert to a.u.)

  No.       Tag          Charge          X              Y              Z
 ---- ---------------- ---------- -------------- -------------- --------------
    1 C                    6.0000     1.95516786    -1.70107311     0.00418564
    2 C                    6.0000     0.85335397    -1.02540104     0.13023193
    3 C                    6.0000    -1.35170676    -1.94635232     0.43591069
    4 C                    6.0000     0.11725953     1.52638970     0.60749909
    5 H                    1.0000     2.00954353    -2.52495805     0.72190824
    6 H                    1.0000     2.94256974    -1.75734384    -0.85240144
    7 H                    1.0000     0.10750834    -2.02727799     1.74458185
    8 H                    1.0000    -1.94404087    -2.09553434     1.27482072
    9 H                    1.0000    -0.95296019    -1.64468584    -1.37353073
   10 H                    1.0000     0.25857799     1.04006217     1.56926469
   11 N                    7.0000    -0.15574058    -1.27716878     1.06740843
   12 N                    7.0000    -1.56460494    -2.32743022    -0.86487929
   13 S                   16.0000     0.40564667     0.36128561    -0.75288602
   14 S                   16.0000    -0.39459839     2.95874885     0.02980405

      Atomic Mass 
      ----------- 

      C                 12.000000
      H                  1.007825
      N                 14.003070
      S                 31.972070


 Effective nuclear repulsion energy (a.u.)     490.2265923888

            Nuclear Dipole moment (a.u.) 
            ----------------------------
        X                 Y               Z
 ---------------- ---------------- ----------------
    -0.0000000000    -0.0000000000     0.0000000000



                                Z-matrix (autoz)
                                -------- 

 Units are Angstrom for bonds and degrees for angles

      Type          Name      I     J     K     L     M      Value
      ----------- --------  ----- ----- ----- ----- ----- ----------
    1 Stretch                  1     2                       1.29862
    2 Stretch                  1     5                       1.09402
    3 Stretch                  1     6                       1.30838
    4 Stretch                  2    11                       1.39999
    5 Stretch                  2    13                       1.70389
    6 Stretch                  3     8                       1.03773
    7 Stretch                  3    11                       1.50895
    8 Stretch                  3    12                       1.37208
    9 Stretch                  4    10                       1.08696
   10 Stretch                  4    13                       1.81419
   11 Stretch                  4    14                       1.62708
   12 Stretch                  7    11                       1.04428
   13 Stretch                  9    12                       1.04832
   14 Bend                     1     2    11               125.65899
   15 Bend                     1     2    13               126.58878
   16 Bend                     2     1     5               111.73554
   17 Bend                     2     1     6               136.57077
   18 Bend                     2    11     3               111.77019
   19 Bend                     2    11     7               112.43067
   20 Bend                     2    13     4               100.12405
   21 Bend                     3    11     7                98.77935
   22 Bend                     3    12     9               100.87003
   23 Bend                     5     1     6               111.07615
   24 Bend                     8     3    11               100.24379
   25 Bend                     8     3    12               129.63624
   26 Bend                    10     4    13               110.82308
   27 Bend                    10     4    14               138.49806
   28 Bend                    11     2    13               107.69331
   29 Bend                    11     3    12               130.00900
   30 Bend                    13     4    14               110.43414
   31 Torsion                  1     2    11     3        -104.18404
   32 Torsion                  1     2    11     7           5.85507
   33 Torsion                  1     2    13     4        -123.56558
   34 Torsion                  2    11     3     8         176.83795
   35 Torsion                  2    11     3    12           0.44151
   36 Torsion                  2    13     4    10          -2.31969
   37 Torsion                  2    13     4    14        -177.71792
   38 Torsion                  3    11     2    13          78.46198
   39 Torsion                  4    13     2    11          53.75685
   40 Torsion                  5     1     2    11           0.81440
   41 Torsion                  5     1     2    13         177.67439
   42 Torsion                  6     1     2    11         170.64296
   43 Torsion                  6     1     2    13         -12.49705
   44 Torsion                  7    11     2    13        -171.49891
   45 Torsion                  7    11     3     8          58.32104
   46 Torsion                  7    11     3    12        -118.07539
   47 Torsion                  8     3    12     9         157.47671
   48 Torsion                  9    12     3    11         -27.12992


            XYZ format geometry
            -------------------
    14
 geometry
 C                     1.95516786    -1.70107311     0.00418564
 C                     0.85335397    -1.02540104     0.13023193
 C                    -1.35170676    -1.94635232     0.43591069
 C                     0.11725953     1.52638970     0.60749909
 H                     2.00954353    -2.52495805     0.72190824
 H                     2.94256974    -1.75734384    -0.85240144
 H                     0.10750834    -2.02727799     1.74458185
 H                    -1.94404087    -2.09553434     1.27482072
 H                    -0.95296019    -1.64468584    -1.37353073
 H                     0.25857799     1.04006217     1.56926469
 N                    -0.15574058    -1.27716878     1.06740843
 N                    -1.56460494    -2.32743022    -0.86487929
 S                     0.40564667     0.36128561    -0.75288602
 S                    -0.39459839     2.95874885     0.02980405

 ==============================================================================
                                internuclear distances
 ------------------------------------------------------------------------------
       center one      |      center two      | atomic units |  angstroms
 ------------------------------------------------------------------------------
    2 C                |   1 C                |     2.45404  |     1.29862
    5 H                |   1 C                |     2.06739  |     1.09402
    8 H                |   3 C                |     1.96103  |     1.03773
   10 H                |   4 C                |     2.05405  |     1.08696
   11 N                |   2 C                |     2.64559  |     1.39999
   11 N                |   3 C                |     2.85150  |     1.50895
   11 N                |   7 H                |     1.97341  |     1.04428
   12 N                |   3 C                |     2.59285  |     1.37208
   12 N                |   9 H                |     1.98104  |     1.04832
   13 S                |   2 C                |     3.21988  |     1.70389
   13 S                |   4 C                |     3.42832  |     1.81419
   14 S                |   4 C                |     3.07473  |     1.62708
 ------------------------------------------------------------------------------
                         number of included internuclear distances:         12
 ==============================================================================



 ==============================================================================
                                 internuclear angles
 ------------------------------------------------------------------------------
        center 1       |       center 2       |       center 3       |  degrees
 ------------------------------------------------------------------------------
    2 C                |   1 C                |   5 H                |   111.74
    1 C                |   2 C                |  11 N                |   125.66
    1 C                |   2 C                |  13 S                |   126.59
   11 N                |   2 C                |  13 S                |   107.69
    8 H                |   3 C                |  11 N                |   100.24
    8 H                |   3 C                |  12 N                |   129.64
   11 N                |   3 C                |  12 N                |   130.01
   10 H                |   4 C                |  13 S                |   110.82
   10 H                |   4 C                |  14 S                |   138.50
   13 S                |   4 C                |  14 S                |   110.43
    2 C                |  11 N                |   3 C                |   111.77
    2 C                |  11 N                |   7 H                |   112.43
    3 C                |  11 N                |   7 H                |    98.78
    3 C                |  12 N                |   9 H                |   100.87
    2 C                |  13 S                |   4 C                |   100.12
 ------------------------------------------------------------------------------
                            number of included internuclear angles:         15
 ==============================================================================





 Summary of "ao basis" -> "" (cartesian)
 ------------------------------------------------------------------------------
       Tag                 Description            Shells   Functions and Types
 ---------------- ------------------------------  ------  ---------------------
 *                          cc-pvdz                   on all atoms 




                           NWChem Geometry Optimization
                           ----------------------------


  no constraints, skipping    0.0000000000000000     
 maximum gradient threshold         (gmax) =   0.000450
 rms gradient threshold             (grms) =   0.000300
 maximum cartesian step threshold   (xmax) =   0.001800
 rms cartesian step threshold       (xrms) =   0.001200
 fixed trust radius                (trust) =   0.300000
 maximum step size to saddle      (sadstp) =   0.100000
 energy precision                  (eprec) =   5.0D-06
 maximum number of steps          (nptopt) =   40
 initial hessian option           (inhess) =    0
 line search option               (linopt) =    1
 hessian update option            (modupd) =    1
 saddle point option              (modsad) =    0
 initial eigen-mode to follow     (moddir) =    0
 initial variable to follow       (vardir) =    0
 follow first negative mode     (firstneg) =    T
 apply conjugacy                    (opcg) =    F
 source of zmatrix                         =   autoz   


          -------------------
          Energy Minimization
          -------------------


 Names of Z-matrix variables 
    1              2              3              4              5         
    6              7              8              9             10         
   11             12             13             14             15         
   16             17             18             19             20         
   21             22             23             24             25         
   26             27             28             29             30         
   31             32             33             34             35         
   36             37             38             39             40         
   41             42             43             44             45         
   46             47             48         

 Variables with the same non-blank name are constrained to be equal


 Using diagonal initial Hessian 
 Scaling for Hessian diagonals: bonds = 1.00  angles = 0.25  torsions = 0.10

          --------
          Step   0
          --------


                         Geometry "geometry" -> "geometry"
                         ---------------------------------

 Output coordinates in angstroms (scale by  1.889725989 to convert to a.u.)

  No.       Tag          Charge          X              Y              Z
 ---- ---------------- ---------- -------------- -------------- --------------
    1 C                    6.0000     1.95516786    -1.70107311     0.00418564
    2 C                    6.0000     0.85335397    -1.02540104     0.13023193
    3 C                    6.0000    -1.35170676    -1.94635232     0.43591069
    4 C                    6.0000     0.11725953     1.52638970     0.60749909
    5 H                    1.0000     2.00954353    -2.52495805     0.72190824
    6 H                    1.0000     2.94256974    -1.75734384    -0.85240144
    7 H                    1.0000     0.10750834    -2.02727799     1.74458185
    8 H                    1.0000    -1.94404087    -2.09553434     1.27482072
    9 H                    1.0000    -0.95296019    -1.64468584    -1.37353073
   10 H                    1.0000     0.25857799     1.04006217     1.56926469
   11 N                    7.0000    -0.15574058    -1.27716878     1.06740843
   12 N                    7.0000    -1.56460494    -2.32743022    -0.86487929
   13 S                   16.0000     0.40564667     0.36128561    -0.75288602
   14 S                   16.0000    -0.39459839     2.95874885     0.02980405

      Atomic Mass 
      ----------- 

      C                 12.000000
      H                  1.007825
      N                 14.003070
      S                 31.972070


 Effective nuclear repulsion energy (a.u.)     490.2265923888

            Nuclear Dipole moment (a.u.) 
            ----------------------------
        X                 Y               Z
 ---------------- ---------------- ----------------
    -0.0000000000    -0.0000000000     0.0000000000


                                 NWChem DFT Module
                                 -----------------


                      Basis "ao basis" -> "ao basis" (cartesian)
                      -----
  C (Carbon)
  ----------
            Exponent  Coefficients 
       -------------- ---------------------------------------------------------
  1 S  6.66500000E+03  0.000692
  1 S  1.00000000E+03  0.005329
  1 S  2.28000000E+02  0.027077
  1 S  6.47100000E+01  0.101718
  1 S  2.10600000E+01  0.274740
  1 S  7.49500000E+00  0.448564
  1 S  2.79700000E+00  0.285074
  1 S  5.21500000E-01  0.015204

  2 S  6.66500000E+03 -0.000146
  2 S  1.00000000E+03 -0.001154
  2 S  2.28000000E+02 -0.005725
  2 S  6.47100000E+01 -0.023312
  2 S  2.10600000E+01 -0.063955
  2 S  7.49500000E+00 -0.149981
  2 S  2.79700000E+00 -0.127262
  2 S  5.21500000E-01  0.544529

  3 S  1.59600000E-01  1.000000

  4 P  9.43900000E+00  0.038109
  4 P  2.00200000E+00  0.209480
  4 P  5.45600000E-01  0.508557

  5 P  1.51700000E-01  1.000000

  6 D  5.50000000E-01  1.000000

  H (Hydrogen)
  ------------
            Exponent  Coefficients 
       -------------- ---------------------------------------------------------
  1 S  1.30100000E+01  0.019685
  1 S  1.96200000E+00  0.137977
  1 S  4.44600000E-01  0.478148

  2 S  1.22000000E-01  1.000000

  3 P  7.27000000E-01  1.000000

  N (Nitrogen)
  ------------
            Exponent  Coefficients 
       -------------- ---------------------------------------------------------
  1 S  9.04600000E+03  0.000700
  1 S  1.35700000E+03  0.005389
  1 S  3.09300000E+02  0.027406
  1 S  8.77300000E+01  0.103207
  1 S  2.85600000E+01  0.278723
  1 S  1.02100000E+01  0.448540
  1 S  3.83800000E+00  0.278238
  1 S  7.46600000E-01  0.015440

  2 S  9.04600000E+03 -0.000153
  2 S  1.35700000E+03 -0.001208
  2 S  3.09300000E+02 -0.005992
  2 S  8.77300000E+01 -0.024544
  2 S  2.85600000E+01 -0.067459
  2 S  1.02100000E+01 -0.158078
  2 S  3.83800000E+00 -0.121831
  2 S  7.46600000E-01  0.549003

  3 S  2.24800000E-01  1.000000

  4 P  1.35500000E+01  0.039919
  4 P  2.91700000E+00  0.217169
  4 P  7.97300000E-01  0.510319

  5 P  2.18500000E-01  1.000000

  6 D  8.17000000E-01  1.000000

  S (Sulphur)
  -----------
            Exponent  Coefficients 
       -------------- ---------------------------------------------------------
  1 S  1.10800000E+05  0.000248
  1 S  1.66100000E+04  0.001920
  1 S  3.78100000E+03  0.009962
  1 S  1.07100000E+03  0.040298
  1 S  3.49800000E+02  0.128604
  1 S  1.26300000E+02  0.303480
  1 S  4.92600000E+01  0.421432
  1 S  2.01600000E+01  0.230781
  1 S  5.72000000E+00  0.017897
  1 S  2.18200000E+00 -0.002975
  1 S  4.32700000E-01  0.000850

  2 S  1.10800000E+05 -0.000069
  2 S  1.66100000E+04 -0.000528
  2 S  3.78100000E+03 -0.002797
  2 S  1.07100000E+03 -0.011265
  2 S  3.49800000E+02 -0.038883
  2 S  1.26300000E+02 -0.099503
  2 S  4.92600000E+01 -0.199740
  2 S  2.01600000E+01 -0.123360
  2 S  5.72000000E+00  0.513194
  2 S  2.18200000E+00  0.607120
  2 S  4.32700000E-01  0.039675

  3 S  1.10800000E+05  0.000020
  3 S  1.66100000E+04  0.000153
  3 S  3.78100000E+03  0.000810
  3 S  1.07100000E+03  0.003290
  3 S  3.49800000E+02  0.011297
  3 S  1.26300000E+02  0.029639
  3 S  4.92600000E+01  0.059985
  3 S  2.01600000E+01  0.041325
  3 S  5.72000000E+00 -0.207474
  3 S  2.18200000E+00 -0.392889
  3 S  4.32700000E-01  0.632840

  4 S  1.57000000E-01  1.000000

  5 P  3.99700000E+02  0.004475
  5 P  9.41900000E+01  0.034171
  5 P  2.97500000E+01  0.144250
  5 P  1.07700000E+01  0.353928
  5 P  4.11900000E+00  0.459085
  5 P  1.62500000E+00  0.206383
  5 P  4.72600000E-01  0.010214

  6 P  3.99700000E+02 -0.001163
  6 P  9.41900000E+01 -0.008657
  6 P  2.97500000E+01 -0.039089
  6 P  1.07700000E+01 -0.093463
  6 P  4.11900000E+00 -0.147994
  6 P  1.62500000E+00  0.030190
  6 P  4.72600000E-01  0.561573

  7 P  1.40700000E-01  1.000000

  8 D  4.79000000E-01  1.000000



 Summary of "ao basis" -> "ao basis" (cartesian)
 ------------------------------------------------------------------------------
       Tag                 Description            Shells   Functions and Types
 ---------------- ------------------------------  ------  ---------------------
 C                          cc-pvdz                  6       15   3s2p1d
 H                          cc-pvdz                  3        5   2s1p
 N                          cc-pvdz                  6       15   3s2p1d
 S                          cc-pvdz                  8       19   4s3p1d




 Summary of "ao basis" -> "ao basis" (cartesian)
 ------------------------------------------------------------------------------
       Tag                 Description            Shells   Functions and Types
 ---------------- ------------------------------  ------  ---------------------
 C                          cc-pvdz                  6       15   3s2p1d
 H                          cc-pvdz                  3        5   2s1p
 N                          cc-pvdz                  6       15   3s2p1d
 S                          cc-pvdz                  8       19   4s3p1d


  Caching 1-el integrals 

            General Information
            -------------------
          SCF calculation type: DFT
          Wavefunction type:  closed shell.
          No. of atoms     :    14
          No. of electrons :    76
           Alpha electrons :    38
            Beta electrons :    38
          Charge           :     0
          Spin multiplicity:     1
          Use of symmetry is: off; symmetry adaption is: off
          Maximum number of iterations:  50
          AO basis - number of functions:   158
                     number of shells:    70
          Convergence on energy requested:  1.00D-06
          Convergence on density requested:  1.00D-05
          Convergence on gradient requested:  5.00D-04

              XC Information
              --------------
                         B3LYP Method XC Potential
                     Hartree-Fock (Exact) Exchange  0.200          
                        Slater Exchange Functional  0.800 local    
                    Becke 1988 Exchange Functional  0.720 non-local
              Lee-Yang-Parr Correlation Functional  0.810          
                  VWN I RPA Correlation Functional  0.190 local    

             Grid Information
             ----------------
          Grid used for XC integration:  medium    
          Radial quadrature: Mura-Knowles        
          Angular quadrature: Lebedev. 
          Tag              B.-S. Rad. Rad. Pts. Rad. Cut. Ang. Pts.
          ---              ---------- --------- --------- ---------
          C                   0.70       49          12.0       434
          H                   0.35       45          13.0       434
          N                   0.65       49          13.0       434
          S                   1.00       88          14.0       590
          Grid pruning is: on 
          Number of quadrature shells:   740
          Spatial weights used:  Erf1

          Convergence Information
          -----------------------
          Convergence aids based upon iterative change in 
          total energy or number of iterations. 
          Levelshifting, if invoked, occurs when the 
          HOMO/LUMO gap drops below (HL_TOL):  1.00D-02
          DIIS, if invoked, will attempt to extrapolate 
          using up to (NFOCK): 10 stored Fock matrices.

                    Damping( 0%)  Levelshifting(0.5)       DIIS
                  --------------- ------------------- ---------------
          dE  on:    start            ASAP                start   
          dE off:    2 iters         50 iters            50 iters 


      Screening Tolerance Information
      -------------------------------
          Density screening/tol_rho:  1.00D-10
          AO Gaussian exp screening on grid/accAOfunc:  14
          CD Gaussian exp screening on grid/accCDfunc:  20
          XC Gaussian exp screening on grid/accXCfunc:  20
          Schwarz screening/accCoul:  1.00D-08


      Superposition of Atomic Density Guess
      -------------------------------------

 Sum of atomic energies:       -1057.21544841

      Non-variational initial energy
      ------------------------------

 Total energy =   -1061.085901
 1-e energy   =   -2427.964030
 2-e energy   =     876.651537
 HOMO         =      -0.240855
 LUMO         =      -0.057980

   Time after variat. SCF:      1.5
   Time prior to 1st pass:      1.5
 Shared filesystem for scratch_dir 

 Integral file          = ./xyz102.aoints.0
 Record size in doubles =    65536    No. of integs per rec  =    43688
 Max. records in memory =     1222    Max. records in file   = 22900634
 No. of bits per label  =        8    No. of bits per value  =       64


 #quartets = 2.412D+06 #integrals = 5.314D+07 #direct =  0.0% #cached =100.0%


File balance: exchanges=     1  moved=   137  time=   0.0

 Shared filesystem for scratch_dir 

 Grid_pts file          = ./xyz102.gridpts.0
 Record size in doubles =  12289        No. of grid_pts per rec  =   3070
 Max. records in memory =     80        Max. recs in file   = 122126782


           Memory utilization after 1st SCF pass: 
           Heap Space remaining (MW):      350.02           350022613
          Stack Space remaining (MW):      431.13           431125532

   convergence    iter        energy       DeltaE   RMS-Dens  Diis-err    time
 ---------------- ----- ----------------- --------- --------- ---------  ------
 d= 0,ls=0.0,diis     1  -1061.6162165861 -1.55D+03  1.53D-02  1.72D+00     6.3
 d= 0,ls=0.0,diis     2  -1060.8585276348  7.58D-01  1.25D-02  7.43D+00     7.2
 d= 0,ls=0.0,diis     3  -1061.8006231962 -9.42D-01  2.57D-03  1.90D-01     8.1
 d= 0,ls=0.0,diis     4  -1061.8178434803 -1.72D-02  1.05D-03  6.36D-02     9.0
 d= 0,ls=0.0,diis     5  -1061.8245389129 -6.70D-03  3.78D-04  4.32D-03    10.0
  Resetting Diis
 d= 0,ls=0.0,diis     6  -1061.8249370347 -3.98D-04  1.59D-04  1.28D-03    11.0
 d= 0,ls=0.0,diis     7  -1061.8250978593 -1.61D-04  1.11D-04  6.06D-05    12.0
 d= 0,ls=0.0,diis     8  -1061.8250714555  2.64D-05  7.84D-05  2.50D-04    13.0
 d= 0,ls=0.0,diis     9  -1061.8251053288 -3.39D-05  1.08D-05  5.30D-06    14.0
 d= 0,ls=0.0,diis    10  -1061.8251060045 -6.76D-07  2.80D-06  3.46D-07    15.0


         Total DFT energy =    -1061.825106004461
      One electron energy =    -2432.263986432689
           Coulomb energy =      969.196854217249
    Exchange-Corr. energy =      -88.984566177865
 Nuclear repulsion energy =      490.226592388845

 Numeric. integr. density =       75.999983679132

     Total iterative time =     13.4s



                       DFT Final Molecular Orbital Analysis
                       ------------------------------------

 Vector    1  Occ=2.000000D+00  E=-8.891842D+01
              MO Center=  4.1D-01,  3.6D-01, -7.5D-01, r^2= 3.6D-03
   Bfn.  Coefficient  Atom+Function         Bfn.  Coefficient  Atom+Function  
  ----- ------------  ---------------      ----- ------------  ---------------
   121      1.000061  13 S  s         

 Vector    2  Occ=2.000000D+00  E=-8.888208D+01
              MO Center= -3.9D-01,  3.0D+00,  3.0D-02, r^2= 3.6D-03
   Bfn.  Coefficient  Atom+Function         Bfn.  Coefficient  Atom+Function  
  ----- ------------  ---------------      ----- ------------  ---------------
   140      1.000013  14 S  s         

 Vector    3  Occ=2.000000D+00  E=-1.438842D+01
              MO Center= -1.6D-01, -1.3D+00,  1.1D+00, r^2= 2.0D-02
   Bfn.  Coefficient  Atom+Function         Bfn.  Coefficient  Atom+Function  
  ----- ------------  ---------------      ----- ------------  ---------------
    91      1.003619  11 N  s         

 Vector    4  Occ=2.000000D+00  E=-1.434550D+01
              MO Center= -1.6D+00, -2.3D+00, -8.6D-01, r^2= 2.0D-02
   Bfn.  Coefficient  Atom+Function         Bfn.  Coefficient  Atom+Function  
  ----- ------------  ---------------      ----- ------------  ---------------
   106      1.003497  12 N  s         

 Vector    5  Occ=2.000000D+00  E=-1.029382D+01
              MO Center=  1.2D-01,  1.5D+00,  6.1D-01, r^2= 2.8D-02
   Bfn.  Coefficient  Atom+Function         Bfn.  Coefficient  Atom+Function  
  ----- ------------  ---------------      ----- ------------  ---------------
    46      1.003637   4 C  s         

 Vector    6  Occ=2.000000D+00  E=-1.029073D+01
              MO Center= -1.4D+00, -1.9D+00,  4.4D-01, r^2= 2.8D-02
   Bfn.  Coefficient  Atom+Function         Bfn.  Coefficient  Atom+Function  
  ----- ------------  ---------------      ----- ------------  ---------------
    31      1.003716   3 C  s         

 Vector    7  Occ=2.000000D+00  E=-1.026683D+01
              MO Center=  8.5D-01, -1.0D+00,  1.3D-01, r^2= 2.8D-02
   Bfn.  Coefficient  Atom+Function         Bfn.  Coefficient  Atom+Function  
  ----- ------------  ---------------      ----- ------------  ---------------
    16      1.003609   2 C  s         

 Vector    8  Occ=2.000000D+00  E=-1.022788D+01
              MO Center=  2.0D+00, -1.7D+00,  4.2D-03, r^2= 2.8D-02
   Bfn.  Coefficient  Atom+Function         Bfn.  Coefficient  Atom+Function  
  ----- ------------  ---------------      ----- ------------  ---------------
     1      1.003677   1 C  s         

 Vector    9  Occ=2.000000D+00  E=-7.975899D+00
              MO Center=  4.1D-01,  3.6D-01, -7.5D-01, r^2= 7.7D-02
   Bfn.  Coefficient  Atom+Function         Bfn.  Coefficient  Atom+Function  
  ----- ------------  ---------------      ----- ------------  ---------------
   122      1.011293  13 S  s               123      0.027956  13 S  s         

 Vector   10  Occ=2.000000D+00  E=-7.938199D+00
              MO Center= -3.9D-01,  3.0D+00,  3.1D-02, r^2= 7.7D-02
   Bfn.  Coefficient  Atom+Function         Bfn.  Coefficient  Atom+Function  
  ----- ------------  ---------------      ----- ------------  ---------------
   141      1.012329  14 S  s               142      0.028732  14 S  s         

 Vector   11  Occ=2.000000D+00  E=-5.940117D+00
              MO Center=  4.1D-01,  3.6D-01, -7.5D-01, r^2= 6.9D-02
   Bfn.  Coefficient  Atom+Function         Bfn.  Coefficient  Atom+Function  
  ----- ------------  ---------------      ----- ------------  ---------------
   126      0.956745  13 S  py              125     -0.264816  13 S  px        
   127      0.131362  13 S  pz        

 Vector   12  Occ=2.000000D+00  E=-5.935820D+00
              MO Center=  4.1D-01,  3.6D-01, -7.6D-01, r^2= 6.9D-02
   Bfn.  Coefficient  Atom+Function         Bfn.  Coefficient  Atom+Function  
  ----- ------------  ---------------      ----- ------------  ---------------
   127      0.986843  13 S  pz              125      0.137297  13 S  px        
   126     -0.097671  13 S  py        

 Vector   13  Occ=2.000000D+00  E=-5.931234D+00
              MO Center=  4.1D-01,  3.6D-01, -7.5D-01, r^2= 6.8D-02
   Bfn.  Coefficient  Atom+Function         Bfn.  Coefficient  Atom+Function  
  ----- ------------  ---------------      ----- ------------  ---------------
   125      0.955522  13 S  px              126      0.279026  13 S  py        
   127     -0.105395  13 S  pz        

 Vector   14  Occ=2.000000D+00  E=-5.901669D+00
              MO Center= -4.0D-01,  3.0D+00,  2.9D-02, r^2= 6.9D-02
   Bfn.  Coefficient  Atom+Function         Bfn.  Coefficient  Atom+Function  
  ----- ------------  ---------------      ----- ------------  ---------------
   145      0.828942  14 S  py              144     -0.425574  14 S  px        
   146     -0.366524  14 S  pz        

 Vector   15  Occ=2.000000D+00  E=-5.900320D+00
              MO Center= -3.9D-01,  3.0D+00,  3.0D-02, r^2= 6.9D-02
   Bfn.  Coefficient  Atom+Function         Bfn.  Coefficient  Atom+Function  
  ----- ------------  ---------------      ----- ------------  ---------------
   144      0.903218  14 S  px              145      0.419738  14 S  py        
   146     -0.099679  14 S  pz        

 Vector   16  Occ=2.000000D+00  E=-5.892549D+00
              MO Center= -3.9D-01,  3.0D+00,  3.0D-02, r^2= 6.8D-02
   Bfn.  Coefficient  Atom+Function         Bfn.  Coefficient  Atom+Function  
  ----- ------------  ---------------      ----- ------------  ---------------
   146      0.926043  14 S  pz              145      0.373041  14 S  py        
   144     -0.071147  14 S  px        

 Vector   17  Occ=2.000000D+00  E=-9.824773D-01
              MO Center= -6.4D-02, -1.4D+00,  6.3D-01, r^2= 1.4D+00
   Bfn.  Coefficient  Atom+Function         Bfn.  Coefficient  Atom+Function  
  ----- ------------  ---------------      ----- ------------  ---------------
    92      0.330253  11 N  s                93      0.269661  11 N  s         
    17      0.197240   2 C  s                32      0.153292   3 C  s         
    71      0.127033   7 H  s                18      0.125756   2 C  s         
   123      0.096419  13 S  s               107      0.086557  12 N  s         
    19     -0.069372   2 C  px               33      0.067450   3 C  s         

 Vector   18  Occ=2.000000D+00  E=-8.752498D-01
              MO Center= -9.3D-01, -1.7D+00, -3.6D-01, r^2= 2.6D+00
   Bfn.  Coefficient  Atom+Function         Bfn.  Coefficient  Atom+Function  
  ----- ------------  ---------------      ----- ------------  ---------------
   107      0.330960  12 N  s               108      0.252982  12 N  s         
    32      0.210165   3 C  s                81      0.145309   9 H  s         
    33      0.138591   3 C  s                17     -0.136892   2 C  s         
   123     -0.129898  13 S  s                36     -0.127645   3 C  pz        
    18     -0.099806   2 C  s               124     -0.095061  13 S  s         

 Vector   19  Occ=2.000000D+00  E=-8.428735D-01
              MO Center= -4.5D-02,  4.0D-01,  7.7D-02, r^2= 3.9D+00
   Bfn.  Coefficient  Atom+Function         Bfn.  Coefficient  Atom+Function  
  ----- ------------  ---------------      ----- ------------  ---------------
   123      0.273654  13 S  s                47      0.238849   4 C  s         
   124      0.190769  13 S  s               142      0.187872  14 S  s         
    48      0.161385   4 C  s                92     -0.160058  11 N  s         
    93     -0.151306  11 N  s               107      0.142446  12 N  s         
   108      0.119111  12 N  s               143      0.114289  14 S  s         

 Vector   20  Occ=2.000000D+00  E=-7.929456D-01
              MO Center=  4.6D-01, -1.9D-01,  2.3D-01, r^2= 5.0D+00
   Bfn.  Coefficient  Atom+Function         Bfn.  Coefficient  Atom+Function  
  ----- ------------  ---------------      ----- ------------  ---------------
   142     -0.218140  14 S  s                 2      0.209606   1 C  s         
    17      0.207133   2 C  s                47     -0.176398   4 C  s         
    18      0.156018   2 C  s               143     -0.151674  14 S  s         
     3      0.144021   1 C  s                92     -0.142517  11 N  s         
    93     -0.142284  11 N  s                48     -0.133010   4 C  s         

 Vector   21  Occ=2.000000D+00  E=-7.309967D-01
              MO Center=  6.9D-01,  5.3D-02,  1.7D-02, r^2= 4.7D+00
   Bfn.  Coefficient  Atom+Function         Bfn.  Coefficient  Atom+Function  
  ----- ------------  ---------------      ----- ------------  ---------------
   123      0.287949  13 S  s               142     -0.252414  14 S  s         
   124      0.250002  13 S  s                 2     -0.238734   1 C  s         
   143     -0.199518  14 S  s                20      0.167128   2 C  py        
    19     -0.157734   2 C  px                3     -0.144845   1 C  s         
    50     -0.140925   4 C  py               61     -0.124076   5 H  s         

 Vector   22  Occ=2.000000D+00  E=-6.499667D-01
              MO Center= -6.1D-01, -1.6D+00,  4.8D-01, r^2= 3.3D+00
   Bfn.  Coefficient  Atom+Function         Bfn.  Coefficient  Atom+Function  
  ----- ------------  ---------------      ----- ------------  ---------------
    32      0.251456   3 C  s                76      0.252581   8 H  s         
    94     -0.215261  11 N  px               33      0.194810   3 C  s         
    36      0.185682   3 C  pz               19      0.160582   2 C  px        
     2      0.132528   1 C  s                21     -0.129914   2 C  pz        
   108     -0.129930  12 N  s               107     -0.124351  12 N  s         

 Vector   23  Occ=2.000000D+00  E=-6.030197D-01
              MO Center=  1.6D-01,  1.0D+00,  5.3D-01, r^2= 4.0D+00
   Bfn.  Coefficient  Atom+Function         Bfn.  Coefficient  Atom+Function  
  ----- ------------  ---------------      ----- ------------  ---------------
   143      0.324338  14 S  s               142      0.289729  14 S  s         
    86     -0.256977  10 H  s                48     -0.237769   4 C  s         
    47     -0.230755   4 C  s                50      0.185011   4 C  py        
   129     -0.131573  13 S  py               51     -0.119000   4 C  pz        
    96     -0.100885  11 N  pz               17      0.094045   2 C  s         

 Vector   24  Occ=2.000000D+00  E=-5.651698D-01
              MO Center= -3.5D-02, -7.1D-01,  5.2D-01, r^2= 4.1D+00
   Bfn.  Coefficient  Atom+Function         Bfn.  Coefficient  Atom+Function  
  ----- ------------  ---------------      ----- ------------  ---------------
   124      0.295107  13 S  s                71      0.262880   7 H  s         
    96      0.241587  11 N  pz              123      0.210411  13 S  s         
    95     -0.175791  11 N  py               51     -0.165206   4 C  pz        
    86     -0.162102  10 H  s                17     -0.144256   2 C  s         
    32     -0.131623   3 C  s                18     -0.124926   2 C  s         

 Vector   25  Occ=2.000000D+00  E=-5.152860D-01
              MO Center=  5.8D-01, -1.7D+00,  3.7D-01, r^2= 3.8D+00
   Bfn.  Coefficient  Atom+Function         Bfn.  Coefficient  Atom+Function  
  ----- ------------  ---------------      ----- ------------  ---------------
    96      0.223635  11 N  pz                5      0.194169   1 C  py        
    61     -0.182393   5 H  s                71      0.180182   7 H  s         
    34     -0.174614   3 C  px               94      0.172039  11 N  px        
     4     -0.169706   1 C  px               19      0.156578   2 C  px        
    35     -0.149314   3 C  py               66     -0.136944   6 H  s         

 Vector   26  Occ=2.000000D+00  E=-5.050643D-01
              MO Center= -6.6D-02, -9.8D-01,  9.3D-02, r^2= 4.5D+00
   Bfn.  Coefficient  Atom+Function         Bfn.  Coefficient  Atom+Function  
  ----- ------------  ---------------      ----- ------------  ---------------
    21      0.216002   2 C  pz               94      0.210702  11 N  px        
   111      0.207303  12 N  pz               51     -0.190191   4 C  pz        
    81     -0.180258   9 H  s               129      0.158167  13 S  py        
    34     -0.152203   3 C  px               86     -0.144966  10 H  s         
    61      0.133310   5 H  s                 5     -0.126694   1 C  py        

 Vector   27  Occ=2.000000D+00  E=-4.680109D-01
              MO Center=  7.2D-01, -6.4D-01,  1.7D-01, r^2= 5.8D+00
   Bfn.  Coefficient  Atom+Function         Bfn.  Coefficient  Atom+Function  
  ----- ------------  ---------------      ----- ------------  ---------------
     4      0.265254   1 C  px               20      0.244686   2 C  py        
   143      0.206888  14 S  s                66      0.177951   6 H  s         
   129     -0.166801  13 S  py               34     -0.158774   3 C  px        
    96      0.157309  11 N  pz               51      0.150559   4 C  pz        
    95      0.133252  11 N  py              142      0.128748  14 S  s         

 Vector   28  Occ=2.000000D+00  E=-4.433593D-01
              MO Center= -9.0D-01, -1.8D+00, -6.6D-02, r^2= 3.5D+00
   Bfn.  Coefficient  Atom+Function         Bfn.  Coefficient  Atom+Function  
  ----- ------------  ---------------      ----- ------------  ---------------
   111     -0.326332  12 N  pz               36      0.299193   3 C  pz        
    76      0.246643   8 H  s                81      0.217478   9 H  s         
    34     -0.170803   3 C  px               95      0.151255  11 N  py        
   114     -0.133050  12 N  pz               21      0.120835   2 C  pz        
     6      0.108730   1 C  pz               77      0.104127   8 H  s         

 Vector   29  Occ=2.000000D+00  E=-4.180050D-01
              MO Center=  9.7D-01, -4.8D-01,  5.2D-02, r^2= 5.6D+00
   Bfn.  Coefficient  Atom+Function         Bfn.  Coefficient  Atom+Function  
  ----- ------------  ---------------      ----- ------------  ---------------
   124      0.244578  13 S  s                51      0.228891   4 C  pz        
    61      0.203251   5 H  s                 5     -0.198574   1 C  py        
    66     -0.195406   6 H  s                 6      0.181875   1 C  pz        
    93     -0.163403  11 N  s                86      0.156418  10 H  s         
   130     -0.149713  13 S  pz              143      0.145147  14 S  s         

 Vector   30  Occ=2.000000D+00  E=-4.025983D-01
              MO Center= -1.2D-01,  1.4D+00,  1.0D-01, r^2= 5.7D+00
   Bfn.  Coefficient  Atom+Function         Bfn.  Coefficient  Atom+Function  
  ----- ------------  ---------------      ----- ------------  ---------------
   143      0.335180  14 S  s                50     -0.294241   4 C  py        
   148      0.273791  14 S  py               19      0.170096   2 C  px        
   149     -0.170137  14 S  pz              142      0.161902  14 S  s         
   151      0.154307  14 S  py              129      0.147808  13 S  py        
    94     -0.140343  11 N  px               53     -0.114729   4 C  py        

 Vector   31  Occ=2.000000D+00  E=-3.675416D-01
              MO Center=  4.0D-01, -1.0D+00,  2.0D-01, r^2= 5.9D+00
   Bfn.  Coefficient  Atom+Function         Bfn.  Coefficient  Atom+Function  
  ----- ------------  ---------------      ----- ------------  ---------------
     6      0.236360   1 C  pz               66     -0.194034   6 H  s         
    94     -0.182242  11 N  px               61      0.174475   5 H  s         
    20      0.167291   2 C  py               96      0.161168  11 N  pz        
    50      0.160298   4 C  py               35      0.158215   3 C  py        
    36     -0.149138   3 C  pz               19      0.140904   2 C  px        

 Vector   32  Occ=2.000000D+00  E=-3.636034D-01
              MO Center=  7.3D-02, -8.7D-03, -8.7D-02, r^2= 4.8D+00
   Bfn.  Coefficient  Atom+Function         Bfn.  Coefficient  Atom+Function  
  ----- ------------  ---------------      ----- ------------  ---------------
   128      0.229385  13 S  px              130      0.222453  13 S  pz        
    49      0.213748   4 C  px              131      0.173921  13 S  px        
    20      0.170643   2 C  py              124     -0.171198  13 S  s         
   147      0.159666  14 S  px              133      0.157342  13 S  pz        
    52      0.148413   4 C  px               34      0.129014   3 C  px        

 Vector   33  Occ=2.000000D+00  E=-3.490843D-01
              MO Center=  2.1D-01,  7.6D-01, -1.8D-01, r^2= 3.9D+00
   Bfn.  Coefficient  Atom+Function         Bfn.  Coefficient  Atom+Function  
  ----- ------------  ---------------      ----- ------------  ---------------
   130      0.288688  13 S  pz               49     -0.237393   4 C  px        
   124     -0.226568  13 S  s               133      0.208972  13 S  pz        
   147     -0.197776  14 S  px              128     -0.161658  13 S  px        
    52     -0.152328   4 C  px              150     -0.147875  14 S  px        
    50     -0.145300   4 C  py              131     -0.135147  13 S  px        

 Vector   34  Occ=2.000000D+00  E=-3.201374D-01
              MO Center= -1.1D+00, -1.8D+00, -4.4D-01, r^2= 3.7D+00
   Bfn.  Coefficient  Atom+Function         Bfn.  Coefficient  Atom+Function  
  ----- ------------  ---------------      ----- ------------  ---------------
   110      0.384652  12 N  py              108     -0.310118  12 N  s         
   113      0.255920  12 N  py               93     -0.209082  11 N  s         
    94      0.164784  11 N  px              107     -0.165253  12 N  s         
    81      0.159821   9 H  s               130      0.139169  13 S  pz        
    34     -0.130761   3 C  px               71      0.130026   7 H  s         

 Vector   35  Occ=2.000000D+00  E=-3.008818D-01
              MO Center=  1.5D-01, -9.3D-01, -7.4D-02, r^2= 5.8D+00
   Bfn.  Coefficient  Atom+Function         Bfn.  Coefficient  Atom+Function  
  ----- ------------  ---------------      ----- ------------  ---------------
   109      0.265296  12 N  px               21      0.247209   2 C  pz        
     5      0.176458   1 C  py                4      0.169453   1 C  px        
   112      0.169678  12 N  px              147     -0.150775  14 S  px        
     6      0.149639   1 C  pz              108     -0.146510  12 N  s         
    20      0.141704   2 C  py               49     -0.137914   4 C  px        

 Vector   36  Occ=2.000000D+00  E=-2.668834D-01
              MO Center= -8.0D-01, -9.9D-01, -9.6D-02, r^2= 5.4D+00
   Bfn.  Coefficient  Atom+Function         Bfn.  Coefficient  Atom+Function  
  ----- ------------  ---------------      ----- ------------  ---------------
   109      0.348275  12 N  px               95      0.261466  11 N  py        
   112      0.249270  12 N  px               98      0.212470  11 N  py        
    35     -0.191459   3 C  py              147      0.178928  14 S  px        
    96      0.177638  11 N  pz              128     -0.175298  13 S  px        
   150      0.163819  14 S  px               99      0.161198  11 N  pz        

 Vector   37  Occ=2.000000D+00  E=-2.443216D-01
              MO Center=  2.2D-01,  6.8D-01, -2.4D-01, r^2= 5.4D+00
   Bfn.  Coefficient  Atom+Function         Bfn.  Coefficient  Atom+Function  
  ----- ------------  ---------------      ----- ------------  ---------------
   128      0.378208  13 S  px              131      0.362725  13 S  px        
   147     -0.214089  14 S  px              150     -0.197098  14 S  px        
   149     -0.178832  14 S  pz                5     -0.173913   1 C  py        
   152     -0.168114  14 S  pz              148     -0.165805  14 S  py        
   151     -0.159240  14 S  py               95      0.130456  11 N  py        

 Vector   38  Occ=2.000000D+00  E=-2.317910D-01
              MO Center= -1.2D-01,  1.9D+00,  4.3D-02, r^2= 5.2D+00
   Bfn.  Coefficient  Atom+Function         Bfn.  Coefficient  Atom+Function  
  ----- ------------  ---------------      ----- ------------  ---------------
   149      0.434342  14 S  pz              152      0.435075  14 S  pz        
   151      0.176045  14 S  py              148      0.173717  14 S  py        
   129      0.152628  13 S  py               86     -0.116999  10 H  s         
   124      0.117212  13 S  s               133      0.112269  13 S  pz        
    95      0.109890  11 N  py              109      0.104654  12 N  px        

 Vector   39  Occ=0.000000D+00  E=-9.069090D-02
              MO Center= -3.6D-02,  1.9D+00,  2.1D-01, r^2= 3.1D+00
   Bfn.  Coefficient  Atom+Function         Bfn.  Coefficient  Atom+Function  
  ----- ------------  ---------------      ----- ------------  ---------------
    52      0.491037   4 C  px              150     -0.467105  14 S  px        
    49      0.464286   4 C  px              147     -0.327096  14 S  px        
   131     -0.234810  13 S  px              128     -0.165757  13 S  px        
    53      0.151466   4 C  py              151     -0.140976  14 S  py        
    50      0.137782   4 C  py              148     -0.097628  14 S  py        

 Vector   40  Occ=0.000000D+00  E=-4.396496D-02
              MO Center= -9.7D-01, -1.9D+00,  5.7D-03, r^2= 3.1D+00
   Bfn.  Coefficient  Atom+Function         Bfn.  Coefficient  Atom+Function  
  ----- ------------  ---------------      ----- ------------  ---------------
    38      0.432021   3 C  py               35      0.410908   3 C  py        
   113     -0.326691  12 N  py              110     -0.303788  12 N  py        
   112      0.254900  12 N  px               23     -0.245125   2 C  py        
   109      0.232211  12 N  px               34     -0.214277   3 C  px        
    37     -0.203663   3 C  px               48      0.169729   4 C  s         

 Vector   41  Occ=0.000000D+00  E=-2.466010D-02
              MO Center=  7.6D-01, -8.8D-01, -1.2D-02, r^2= 4.7D+00
   Bfn.  Coefficient  Atom+Function         Bfn.  Coefficient  Atom+Function  
  ----- ------------  ---------------      ----- ------------  ---------------
    48      0.482837   4 C  s                 8      0.325346   1 C  py        
     7      0.292680   1 C  px              124     -0.284861  13 S  s         
    33     -0.273503   3 C  s                23     -0.270983   2 C  py        
    54     -0.266285   4 C  pz               24     -0.259269   2 C  pz        
    22     -0.256137   2 C  px               21     -0.233207   2 C  pz        

 Vector   42  Occ=0.000000D+00  E= 1.564864D-02
              MO Center=  4.9D-01, -4.6D-01,  1.4D-02, r^2= 6.4D+00
   Bfn.  Coefficient  Atom+Function         Bfn.  Coefficient  Atom+Function  
  ----- ------------  ---------------      ----- ------------  ---------------
    48      0.855974   4 C  s               132     -0.738291  13 S  py        
    72     -0.564586   7 H  s                67      0.475771   6 H  s         
    77     -0.427099   8 H  s                18     -0.416531   2 C  s         
    87     -0.417907  10 H  s                33      0.363771   3 C  s         
    24      0.318654   2 C  pz               53     -0.302411   4 C  py        

 Vector   43  Occ=0.000000D+00  E= 2.805541D-02
              MO Center=  1.5D+00, -1.9D+00,  5.0D-01, r^2= 6.2D+00
   Bfn.  Coefficient  Atom+Function         Bfn.  Coefficient  Atom+Function  
  ----- ------------  ---------------      ----- ------------  ---------------
    67      0.921639   6 H  s                72      0.808741   7 H  s         
     3     -0.783140   1 C  s                62      0.549799   5 H  s         
     7     -0.476401   1 C  px               93     -0.474888  11 N  s         
    18     -0.355069   2 C  s                 8      0.274178   1 C  py        
   124     -0.252660  13 S  s                77      0.244960   8 H  s         

 Vector   44  Occ=0.000000D+00  E= 5.166729D-02
              MO Center=  1.4D+00, -1.3D+00, -1.0D-01, r^2= 6.1D+00
   Bfn.  Coefficient  Atom+Function         Bfn.  Coefficient  Atom+Function  
  ----- ------------  ---------------      ----- ------------  ---------------
    67      0.909330   6 H  s                 9      0.673368   1 C  pz        
    62     -0.613857   5 H  s                72     -0.523022   7 H  s         
    48     -0.515296   4 C  s               133      0.418490  13 S  pz        
   124      0.400872  13 S  s               108      0.326006  12 N  s         
    82     -0.295732   9 H  s                 6      0.286796   1 C  pz        

 Vector   45  Occ=0.000000D+00  E= 8.227700D-02
              MO Center= -2.5D-01,  3.2D-01,  1.1D+00, r^2= 7.5D+00
   Bfn.  Coefficient  Atom+Function         Bfn.  Coefficient  Atom+Function  
  ----- ------------  ---------------      ----- ------------  ---------------
    87     -1.358288  10 H  s                48      1.292270   4 C  s         
    77      0.851771   8 H  s                33     -0.773477   3 C  s         
    54      0.568773   4 C  pz               18     -0.420089   2 C  s         
    72      0.396954   7 H  s               143     -0.374719  14 S  s         
    82     -0.369113   9 H  s               152     -0.365692  14 S  pz        

 Vector   46  Occ=0.000000D+00  E= 8.755948D-02
              MO Center=  2.5D-01, -1.1D+00,  8.0D-01, r^2= 9.2D+00
   Bfn.  Coefficient  Atom+Function         Bfn.  Coefficient  Atom+Function  
  ----- ------------  ---------------      ----- ------------  ---------------
    62      1.128818   5 H  s                77     -1.109703   8 H  s         
     3     -0.951833   1 C  s                33      0.698213   3 C  s         
    87     -0.671773  10 H  s                48      0.666562   4 C  s         
    18      0.533181   2 C  s               132      0.523135  13 S  py        
    39      0.451585   3 C  pz               37     -0.329149   3 C  px        

 Vector   47  Occ=0.000000D+00  E= 1.112568D-01
              MO Center= -2.9D-01, -6.3D-01,  1.6D-01, r^2= 7.1D+00
   Bfn.  Coefficient  Atom+Function         Bfn.  Coefficient  Atom+Function  
  ----- ------------  ---------------      ----- ------------  ---------------
    18      1.308024   2 C  s               124     -1.211448  13 S  s         
    77      1.093849   8 H  s                33     -0.921195   3 C  s         
   133     -0.797767  13 S  pz               82     -0.634226   9 H  s         
   108      0.544514  12 N  s                 3     -0.534612   1 C  s         
    23      0.466340   2 C  py               54     -0.466341   4 C  pz        

 Vector   48  Occ=0.000000D+00  E= 1.248726D-01
              MO Center= -8.4D-01, -1.4D+00, -1.5D-01, r^2= 7.2D+00
   Bfn.  Coefficient  Atom+Function         Bfn.  Coefficient  Atom+Function  
  ----- ------------  ---------------      ----- ------------  ---------------
    77      1.131507   8 H  s                82      1.120832   9 H  s         
    33     -0.957060   3 C  s               108     -0.878065  12 N  s         
    93      0.767419  11 N  s                39     -0.541206   3 C  pz        
    72     -0.506451   7 H  s                87     -0.488245  10 H  s         
     3     -0.453835   1 C  s               143      0.448326  14 S  s         

 Vector   49  Occ=0.000000D+00  E= 1.287070D-01
              MO Center=  5.4D-01, -1.2D+00,  3.0D-01, r^2= 7.3D+00
   Bfn.  Coefficient  Atom+Function         Bfn.  Coefficient  Atom+Function  
  ----- ------------  ---------------      ----- ------------  ---------------
    62      1.349611   5 H  s               124      1.124621  13 S  s         
    18     -1.059500   2 C  s                 3     -0.977776   1 C  s         
    77      0.722638   8 H  s                23     -0.697616   2 C  py        
    72     -0.686272   7 H  s               133      0.666936  13 S  pz        
   132     -0.645563  13 S  py               93      0.633955  11 N  s         

 Vector   50  Occ=0.000000D+00  E= 1.310593D-01
              MO Center= -2.6D-01,  1.9D+00,  3.8D-01, r^2= 6.4D+00
   Bfn.  Coefficient  Atom+Function         Bfn.  Coefficient  Atom+Function  
  ----- ------------  ---------------      ----- ------------  ---------------
   143      1.441814  14 S  s                87     -1.266658  10 H  s         
    53     -1.194583   4 C  py              151     -1.174712  14 S  py        
    54      0.728817   4 C  pz               48     -0.473437   4 C  s         
    82     -0.455198   9 H  s               152      0.438448  14 S  pz        
   108      0.423541  12 N  s                52      0.420267   4 C  px        

 Vector   51  Occ=0.000000D+00  E= 1.916815D-01
              MO Center= -5.8D-01, -1.5D+00,  4.9D-01, r^2= 3.5D+00
   Bfn.  Coefficient  Atom+Function         Bfn.  Coefficient  Atom+Function  
  ----- ------------  ---------------      ----- ------------  ---------------
    33      1.081932   3 C  s                37      0.859371   3 C  px        
    18      0.694205   2 C  s                87     -0.692079  10 H  s         
    77      0.668619   8 H  s               108     -0.576491  12 N  s         
     3     -0.571019   1 C  s                93     -0.555310  11 N  s         
    99      0.555201  11 N  pz               39     -0.523148   3 C  pz        

 Vector   52  Occ=0.000000D+00  E= 2.388861D-01
              MO Center=  4.0D-01, -1.7D+00,  2.1D-01, r^2= 6.4D+00
   Bfn.  Coefficient  Atom+Function         Bfn.  Coefficient  Atom+Function  
  ----- ------------  ---------------      ----- ------------  ---------------
    18      2.274871   2 C  s                 3     -1.403734   1 C  s         
    93     -1.307105  11 N  s                 7      1.226518   1 C  px        
    62      1.015951   5 H  s                39      1.003301   3 C  pz        
    67     -0.995383   6 H  s                23     -0.933369   2 C  py        
   108      0.903217  12 N  s                24      0.866993   2 C  pz        

 Vector   53  Occ=0.000000D+00  E= 2.750713D-01
              MO Center=  1.1D+00, -1.4D+00, -2.8D-01, r^2= 6.7D+00
   Bfn.  Coefficient  Atom+Function         Bfn.  Coefficient  Atom+Function  
  ----- ------------  ---------------      ----- ------------  ---------------
     3      3.677107   1 C  s                18     -3.404762   2 C  s         
    22     -2.528920   2 C  px                7     -2.463453   1 C  px        
     8      1.621331   1 C  py               23      1.528930   2 C  py        
    39      0.958146   3 C  pz              108      0.844689  12 N  s         
    67      0.808440   6 H  s                93     -0.668969  11 N  s         

 Vector   54  Occ=0.000000D+00  E= 2.909416D-01
              MO Center= -2.5D-01, -8.4D-01,  1.4D-01, r^2= 7.1D+00
   Bfn.  Coefficient  Atom+Function         Bfn.  Coefficient  Atom+Function  
  ----- ------------  ---------------      ----- ------------  ---------------
    22      2.206861   2 C  px                3     -1.746183   1 C  s         
    39      1.365592   3 C  pz               24     -1.234045   2 C  pz        
   108      1.089049  12 N  s                 8     -0.958232   1 C  py        
    97      0.810200  11 N  px                7      0.797527   1 C  px        
    62     -0.761627   5 H  s               114      0.699751  12 N  pz        

 Vector   55  Occ=0.000000D+00  E= 3.537760D-01
              MO Center=  8.0D-02,  1.3D+00,  5.7D-01, r^2= 5.7D+00
   Bfn.  Coefficient  Atom+Function         Bfn.  Coefficient  Atom+Function  
  ----- ------------  ---------------      ----- ------------  ---------------
   143      0.755203  14 S  s               124      0.746844  13 S  s         
    53      0.713366   4 C  py              142     -0.706801  14 S  s         
    22     -0.603197   2 C  px                3      0.538746   1 C  s         
   141     -0.512582  14 S  s                39     -0.487966   3 C  pz        
    24      0.473808   2 C  pz                8      0.437803   1 C  py        

 Vector   56  Occ=0.000000D+00  E= 3.811882D-01
              MO Center=  8.0D-01, -3.5D-01, -9.3D-03, r^2= 5.7D+00
   Bfn.  Coefficient  Atom+Function         Bfn.  Coefficient  Atom+Function  
  ----- ------------  ---------------      ----- ------------  ---------------
    18      1.370377   2 C  s                 3     -1.152304   1 C  s         
    22      1.048497   2 C  px                7      0.860029   1 C  px        
     8     -0.592756   1 C  py               33      0.592454   3 C  s         
    53     -0.534975   4 C  py              123     -0.523131  13 S  s         
   124      0.488138  13 S  s               143      0.469702  14 S  s         

 Vector   57  Occ=0.000000D+00  E= 3.872754D-01
              MO Center=  6.8D-01, -3.5D-01, -5.6D-02, r^2= 5.3D+00
   Bfn.  Coefficient  Atom+Function         Bfn.  Coefficient  Atom+Function  
  ----- ------------  ---------------      ----- ------------  ---------------
    22      1.191427   2 C  px               23     -1.169701   2 C  py        
   124      1.022626  13 S  s                 3     -0.750730   1 C  s         
   133      0.684890  13 S  pz              132     -0.569475  13 S  py        
    39     -0.559279   3 C  pz               24      0.396496   2 C  pz        
    18      0.384867   2 C  s               151     -0.374869  14 S  py        

 Vector   58  Occ=0.000000D+00  E= 3.996766D-01
              MO Center=  5.8D-04,  5.3D-01, -2.5D-02, r^2= 5.7D+00
   Bfn.  Coefficient  Atom+Function         Bfn.  Coefficient  Atom+Function  
  ----- ------------  ---------------      ----- ------------  ---------------
   124      0.983237  13 S  s                18     -0.734649   2 C  s         
   133      0.627138  13 S  pz               33      0.524562   3 C  s         
    38      0.510735   3 C  py              123     -0.440228  13 S  s         
   122     -0.354333  13 S  s               139     -0.354359  13 S  dzz       
   130     -0.337333  13 S  pz               67     -0.332925   6 H  s         

 Vector   59  Occ=0.000000D+00  E= 4.203528D-01
              MO Center=  1.2D+00, -1.2D+00, -3.0D-01, r^2= 6.3D+00
   Bfn.  Coefficient  Atom+Function         Bfn.  Coefficient  Atom+Function  
  ----- ------------  ---------------      ----- ------------  ---------------
     8      0.652733   1 C  py               66      0.611818   6 H  s         
    67     -0.597776   6 H  s                33     -0.567516   3 C  s         
   133     -0.467353  13 S  pz               37     -0.463763   3 C  px        
     3      0.431115   1 C  s               143      0.360806  14 S  s         
   131     -0.347389  13 S  px               21     -0.340433   2 C  pz        

 Vector   60  Occ=0.000000D+00  E= 4.351985D-01
              MO Center=  1.5D-01,  5.8D-01,  1.6D-01, r^2= 6.1D+00
   Bfn.  Coefficient  Atom+Function         Bfn.  Coefficient  Atom+Function  
  ----- ------------  ---------------      ----- ------------  ---------------
    49      0.501390   4 C  px               22      0.481755   2 C  px        
    23     -0.476813   2 C  py               53     -0.458955   4 C  py        
    39      0.437714   3 C  pz               33      0.428155   3 C  s         
    52     -0.404922   4 C  px                9     -0.396659   1 C  pz        
     3     -0.367151   1 C  s                38      0.350442   3 C  py        

 Vector   61  Occ=0.000000D+00  E= 4.386214D-01
              MO Center= -2.0D-01,  5.5D-01, -2.3D-01, r^2= 8.8D+00
   Bfn.  Coefficient  Atom+Function         Bfn.  Coefficient  Atom+Function  
  ----- ------------  ---------------      ----- ------------  ---------------
   132     -0.703823  13 S  py              124      0.648457  13 S  s         
   143     -0.556745  14 S  s               151     -0.518989  14 S  py        
    82     -0.498036   9 H  s                22     -0.480223   2 C  px        
    24      0.448693   2 C  pz              142      0.446770  14 S  s         
   129      0.409260  13 S  py               23     -0.396184   2 C  py        

 Vector   62  Occ=0.000000D+00  E= 4.611907D-01
              MO Center= -7.1D-01, -8.3D-01, -5.4D-01, r^2= 7.8D+00
   Bfn.  Coefficient  Atom+Function         Bfn.  Coefficient  Atom+Function  
  ----- ------------  ---------------      ----- ------------  ---------------
    39      1.007892   3 C  pz               82      0.944711   9 H  s         
    18     -0.614378   2 C  s                36     -0.517153   3 C  pz        
    81     -0.487190   9 H  s                67     -0.369378   6 H  s         
   150      0.359215  14 S  px               22      0.357081   2 C  px        
   147     -0.326949  14 S  px               32      0.284508   3 C  s         

 Vector   63  Occ=0.000000D+00  E= 4.688061D-01
              MO Center=  5.5D-01, -1.0D+00,  2.0D-01, r^2= 6.4D+00
   Bfn.  Coefficient  Atom+Function         Bfn.  Coefficient  Atom+Function  
  ----- ------------  ---------------      ----- ------------  ---------------
    37      0.786403   3 C  px                7     -0.466508   1 C  px        
   124      0.468628  13 S  s                72     -0.446076   7 H  s         
    33      0.367324   3 C  s                66      0.363338   6 H  s         
     8     -0.357990   1 C  py               93     -0.327875  11 N  s         
    24      0.317695   2 C  pz               76      0.313654   8 H  s         

 Vector   64  Occ=0.000000D+00  E= 4.893063D-01
              MO Center=  2.7D-01,  8.8D-01, -3.5D-01, r^2= 7.6D+00
   Bfn.  Coefficient  Atom+Function         Bfn.  Coefficient  Atom+Function  
  ----- ------------  ---------------      ----- ------------  ---------------
    18      0.691952   2 C  s               150      0.564009  14 S  px        
   133     -0.510367  13 S  pz                7      0.499417   1 C  px        
    67     -0.488110   6 H  s               147     -0.490389  14 S  px        
   151     -0.473844  14 S  py               53     -0.444001   4 C  py        
     9     -0.434811   1 C  pz              130      0.436446  13 S  pz        

 Vector   65  Occ=0.000000D+00  E= 4.946806D-01
              MO Center=  5.7D-01,  1.7D-01, -2.0D-01, r^2= 8.4D+00
   Bfn.  Coefficient  Atom+Function         Bfn.  Coefficient  Atom+Function  
  ----- ------------  ---------------      ----- ------------  ---------------
    48      0.782658   4 C  s               132     -0.754169  13 S  py        
     7      0.724798   1 C  px              151      0.701606  14 S  py        
    67     -0.693400   6 H  s                54     -0.632504   4 C  pz        
     9     -0.580194   1 C  pz               18      0.564002   2 C  s         
   131      0.497572  13 S  px               61      0.451027   5 H  s         

 Vector   66  Occ=0.000000D+00  E= 5.026046D-01
              MO Center= -7.2D-02,  2.0D-01,  6.7D-02, r^2= 8.6D+00
   Bfn.  Coefficient  Atom+Function         Bfn.  Coefficient  Atom+Function  
  ----- ------------  ---------------      ----- ------------  ---------------
    23      0.713720   2 C  py                7     -0.645686   1 C  px        
   124     -0.553704  13 S  s                38      0.508345   3 C  py        
    67      0.504985   6 H  s               151      0.477194  14 S  py        
   131     -0.431877  13 S  px              154      0.411210  14 S  dxy       
    35     -0.389860   3 C  py              150      0.343738  14 S  px        

 Vector   67  Occ=0.000000D+00  E= 5.091697D-01
              MO Center=  1.5D-01,  3.2D-01,  2.7D-01, r^2= 7.0D+00
   Bfn.  Coefficient  Atom+Function         Bfn.  Coefficient  Atom+Function  
  ----- ------------  ---------------      ----- ------------  ---------------
    23      0.985480   2 C  py               18     -0.673006   2 C  s         
   131     -0.658966  13 S  px               24     -0.619978   2 C  pz        
    93      0.561980  11 N  s                52      0.514278   4 C  px        
     7     -0.418408   1 C  px               54      0.398928   4 C  pz        
   150     -0.386364  14 S  px               82     -0.366874   9 H  s         

 Vector   68  Occ=0.000000D+00  E= 5.174733D-01
              MO Center= -2.8D-01,  1.8D+00,  2.1D-02, r^2= 6.5D+00
   Bfn.  Coefficient  Atom+Function         Bfn.  Coefficient  Atom+Function  
  ----- ------------  ---------------      ----- ------------  ---------------
   152      0.952791  14 S  pz              149     -0.783337  14 S  pz        
    54     -0.666228   4 C  pz              124     -0.527105  13 S  s         
    48      0.505499   4 C  s               133     -0.488256  13 S  pz        
    53     -0.464798   4 C  py               22      0.422824   2 C  px        
     3     -0.361359   1 C  s               151      0.348936  14 S  py        

 Vector   69  Occ=0.000000D+00  E= 5.278635D-01
              MO Center= -1.6D-01, -7.0D-01,  2.7D-01, r^2= 8.2D+00
   Bfn.  Coefficient  Atom+Function         Bfn.  Coefficient  Atom+Function  
  ----- ------------  ---------------      ----- ------------  ---------------
    37     -0.823122   3 C  px               54     -0.804682   4 C  pz        
    18      0.756758   2 C  s                39     -0.708197   3 C  pz        
   124     -0.678239  13 S  s                33     -0.667063   3 C  s         
   133     -0.496920  13 S  pz                8     -0.484694   1 C  py        
   150     -0.484950  14 S  px                9     -0.417527   1 C  pz        

 Vector   70  Occ=0.000000D+00  E= 5.351805D-01
              MO Center=  8.2D-02, -3.4D-01,  4.2D-01, r^2= 7.8D+00
   Bfn.  Coefficient  Atom+Function         Bfn.  Coefficient  Atom+Function  
  ----- ------------  ---------------      ----- ------------  ---------------
    18      0.605580   2 C  s                62      0.586562   5 H  s         
    72     -0.527017   7 H  s                23     -0.463480   2 C  py        
   124      0.442015  13 S  s                 8      0.409265   1 C  py        
   150      0.385659  14 S  px               71      0.383527   7 H  s         
    67     -0.381432   6 H  s               135     -0.372450  13 S  dxy       

 Vector   71  Occ=0.000000D+00  E= 5.510202D-01
              MO Center= -1.4D-01,  3.2D-01, -2.4D-01, r^2= 6.4D+00
   Bfn.  Coefficient  Atom+Function         Bfn.  Coefficient  Atom+Function  
  ----- ------------  ---------------      ----- ------------  ---------------
    22      0.764452   2 C  px              136     -0.686342  13 S  dxz       
    93      0.656098  11 N  s               155      0.591623  14 S  dxz       
    82      0.563006   9 H  s               133      0.558318  13 S  pz        
    18     -0.541065   2 C  s                37     -0.433904   3 C  px        
     3     -0.429159   1 C  s                 9     -0.412672   1 C  pz        

 Vector   72  Occ=0.000000D+00  E= 5.551922D-01
              MO Center= -5.0D-01, -7.3D-02,  5.0D-02, r^2= 7.6D+00
   Bfn.  Coefficient  Atom+Function         Bfn.  Coefficient  Atom+Function  
  ----- ------------  ---------------      ----- ------------  ---------------
   108      0.761172  12 N  s               124     -0.760564  13 S  s         
    39      0.651972   3 C  pz               52      0.631685   4 C  px        
    82     -0.600977   9 H  s                54     -0.566565   4 C  pz        
    37      0.538624   3 C  px               93     -0.519997  11 N  s         
    38      0.511589   3 C  py              133     -0.506121  13 S  pz        

 Vector   73  Occ=0.000000D+00  E= 5.701318D-01
              MO Center= -2.1D-01,  1.7D+00,  9.6D-02, r^2= 5.1D+00
   Bfn.  Coefficient  Atom+Function         Bfn.  Coefficient  Atom+Function  
  ----- ------------  ---------------      ----- ------------  ---------------
    54      0.910634   4 C  pz              124      0.886139  13 S  s         
   132      0.843933  13 S  py               48     -0.650299   4 C  s         
   154     -0.650770  14 S  dxy             158      0.532839  14 S  dzz       
   133      0.507828  13 S  pz              143     -0.450108  14 S  s         
    53      0.426832   4 C  py               87     -0.410853  10 H  s         

 Vector   74  Occ=0.000000D+00  E= 5.960092D-01
              MO Center= -1.5D-01, -4.8D-01,  5.0D-01, r^2= 7.7D+00
   Bfn.  Coefficient  Atom+Function         Bfn.  Coefficient  Atom+Function  
  ----- ------------  ---------------      ----- ------------  ---------------
   143      0.739877  14 S  s                22      0.692444   2 C  px        
    72     -0.610785   7 H  s                23     -0.601087   2 C  py        
    39      0.576996   3 C  pz               62      0.565866   5 H  s         
    87     -0.534433  10 H  s                 9     -0.524433   1 C  pz        
    67     -0.515540   6 H  s               155     -0.496891  14 S  dxz       

 Vector   75  Occ=0.000000D+00  E= 6.209652D-01
              MO Center=  1.9D-01,  3.6D-01,  4.1D-02, r^2= 8.2D+00
   Bfn.  Coefficient  Atom+Function         Bfn.  Coefficient  Atom+Function  
  ----- ------------  ---------------      ----- ------------  ---------------
    33      0.797755   3 C  s                 9      0.737028   1 C  pz        
    62     -0.665633   5 H  s                87     -0.617069  10 H  s         
   154     -0.498803  14 S  dxy             143      0.494981  14 S  s         
    67      0.475205   6 H  s                54      0.454603   4 C  pz        
   150      0.416164  14 S  px                6     -0.384689   1 C  pz        

 Vector   76  Occ=0.000000D+00  E= 6.222894D-01
              MO Center=  6.8D-03, -9.5D-02, -2.7D-01, r^2= 6.1D+00
   Bfn.  Coefficient  Atom+Function         Bfn.  Coefficient  Atom+Function  
  ----- ------------  ---------------      ----- ------------  ---------------
   132      0.778820  13 S  py               37     -0.663398   3 C  px        
    24     -0.637630   2 C  pz               18      0.619284   2 C  s         
   155     -0.546939  14 S  dxz             124     -0.517343  13 S  s         
   135     -0.508389  13 S  dxy              22     -0.489893   2 C  px        
    33     -0.459260   3 C  s               143      0.439281  14 S  s         

 Vector   77  Occ=0.000000D+00  E= 6.304011D-01
              MO Center=  7.5D-01, -4.6D-01,  3.8D-01, r^2= 6.3D+00
   Bfn.  Coefficient  Atom+Function         Bfn.  Coefficient  Atom+Function  
  ----- ------------  ---------------      ----- ------------  ---------------
   143      1.527451  14 S  s                53     -0.957928   4 C  py        
   124     -0.816039  13 S  s                 7     -0.801010   1 C  px        
    23      0.772070   2 C  py               87     -0.722065  10 H  s         
    62     -0.706563   5 H  s                 9      0.698141   1 C  pz        
   151     -0.652435  14 S  py               67      0.627068   6 H  s         

 Vector   78  Occ=0.000000D+00  E= 6.446864D-01
              MO Center=  6.2D-02,  4.1D-01, -1.8D-02, r^2= 7.1D+00
   Bfn.  Coefficient  Atom+Function         Bfn.  Coefficient  Atom+Function  
  ----- ------------  ---------------      ----- ------------  ---------------
    18      1.749848   2 C  s               143      1.721707  14 S  s         
    53     -1.241528   4 C  py                7      1.065600   1 C  px        
    23     -1.020311   2 C  py              155      0.810616  14 S  dxz       
    87     -0.795206  10 H  s                 3     -0.723015   1 C  s         
    54      0.720555   4 C  pz              151     -0.680524  14 S  py        

 Vector   79  Occ=0.000000D+00  E= 6.524796D-01
              MO Center=  3.1D-01,  4.4D-01,  2.0D-01, r^2= 6.6D+00
   Bfn.  Coefficient  Atom+Function         Bfn.  Coefficient  Atom+Function  
  ----- ------------  ---------------      ----- ------------  ---------------
   124      1.355663  13 S  s               143     -1.089950  14 S  s         
    23     -0.768460   2 C  py               53      0.763968   4 C  py        
     9      0.580507   1 C  pz               62     -0.581284   5 H  s         
   154      0.581790  14 S  dxy             131      0.523992  13 S  px        
   150     -0.485275  14 S  px              142      0.424162  14 S  s         

 Vector   80  Occ=0.000000D+00  E= 6.594965D-01
              MO Center=  2.6D-01,  1.0D-01,  9.3D-01, r^2= 7.1D+00
   Bfn.  Coefficient  Atom+Function         Bfn.  Coefficient  Atom+Function  
  ----- ------------  ---------------      ----- ------------  ---------------
    87     -1.627698  10 H  s                54      1.517571   4 C  pz        
   143      1.027968  14 S  s                18     -0.824804   2 C  s         
    72      0.749223   7 H  s                51     -0.591255   4 C  pz        
    62      0.558232   5 H  s                23      0.527245   2 C  py        
   124      0.507841  13 S  s               151     -0.469163  14 S  py        

 Vector   81  Occ=0.000000D+00  E= 6.740945D-01
              MO Center=  2.8D-01,  2.7D-01,  1.5D-01, r^2= 7.3D+00
   Bfn.  Coefficient  Atom+Function         Bfn.  Coefficient  Atom+Function  
  ----- ------------  ---------------      ----- ------------  ---------------
    18      1.373811   2 C  s               143      1.218080  14 S  s         
     7      1.067603   1 C  px               22      1.006895   2 C  px        
    62     -0.770400   5 H  s               155     -0.753312  14 S  dxz       
    52      0.709444   4 C  px              136     -0.697634  13 S  dxz       
     8     -0.652078   1 C  py               39     -0.654200   3 C  pz        

 Vector   82  Occ=0.000000D+00  E= 6.933329D-01
              MO Center=  1.9D-01, -8.6D-01,  5.5D-01, r^2= 7.6D+00
   Bfn.  Coefficient  Atom+Function         Bfn.  Coefficient  Atom+Function  
  ----- ------------  ---------------      ----- ------------  ---------------
    77     -1.452949   8 H  s                39      1.398272   3 C  pz        
    33      1.360367   3 C  s                18     -1.253533   2 C  s         
     3     -0.944115   1 C  s                37     -0.909008   3 C  px        
    99     -0.718567  11 N  pz               24     -0.669537   2 C  pz        
     8      0.622976   1 C  py               32     -0.607105   3 C  s         

 Vector   83  Occ=0.000000D+00  E= 7.225638D-01
              MO Center= -4.5D-03, -1.5D+00,  2.2D-02, r^2= 7.1D+00
   Bfn.  Coefficient  Atom+Function         Bfn.  Coefficient  Atom+Function  
  ----- ------------  ---------------      ----- ------------  ---------------
    22      2.139545   2 C  px              124      1.629916  13 S  s         
    23     -1.480653   2 C  py                8     -1.274672   1 C  py        
    93      1.278904  11 N  s                62     -1.259146   5 H  s         
     7      1.141972   1 C  px               99     -1.118602  11 N  pz        
    33     -1.040195   3 C  s                37     -0.915703   3 C  px        

 Vector   84  Occ=0.000000D+00  E= 7.401553D-01
              MO Center= -7.1D-01, -1.7D+00,  5.1D-01, r^2= 5.8D+00
   Bfn.  Coefficient  Atom+Function         Bfn.  Coefficient  Atom+Function  
  ----- ------------  ---------------      ----- ------------  ---------------
    33      2.396202   3 C  s                77     -1.640614   8 H  s         
    24      1.321918   2 C  pz              124      1.069347  13 S  s         
    18      0.937670   2 C  s                93     -0.912327  11 N  s         
    32     -0.906426   3 C  s                 7      0.772068   1 C  px        
    39      0.766630   3 C  pz               23     -0.757500   2 C  py        

 Vector   85  Occ=0.000000D+00  E= 7.775378D-01
              MO Center= -2.8D-01, -4.8D-01, -1.1D-01, r^2= 6.9D+00
   Bfn.  Coefficient  Atom+Function         Bfn.  Coefficient  Atom+Function  
  ----- ------------  ---------------      ----- ------------  ---------------
    99     -0.657954  11 N  pz               23      0.652479   2 C  py        
    48     -0.613417   4 C  s               113      0.612098  12 N  py        
[...]
          31     0.03519    -0.00365    -0.01324     0.12738    -0.07122     0.03868
          32    -0.03691    -0.00068    -0.00546     0.00102    -0.03021     0.02398
          33     0.12617     0.00394     0.00637     0.02920     0.02365    -0.03349
          34    -0.03237    -0.00224    -0.00806    -0.05064     0.07058     0.03774
          35    -0.00874    -0.00100     0.03100     0.00399     0.00567     0.00975
          36    -0.04931    -0.00097     0.01050    -0.06591     0.03609     0.00241
          37     0.00339     0.00431     0.00024    -0.00208    -0.00148     0.00174
          38    -0.00739    -0.00497    -0.00075    -0.00455    -0.00610     0.00701
          39     0.00711    -0.00538    -0.00067     0.00672     0.00724    -0.01080
          40    -0.00051     0.01768     0.00050     0.00049     0.00070    -0.00645
          41     0.00152    -0.07905    -0.00252    -0.00165    -0.00158     0.01558
          42    -0.00009     0.02437     0.00091     0.00079     0.00029     0.00260

                   31          32          33          34          35          36
 
 P.Frequency     1271.82     1391.97     1429.82     1476.48     1676.70     1734.02
 
           1     0.00484     0.00585     0.00324    -0.05584     0.15286     0.01538
           2    -0.03111     0.00734    -0.01008     0.02341    -0.08171    -0.00443
           3     0.01692    -0.00636     0.00519     0.01004    -0.00641    -0.00365
           4     0.02223    -0.09803     0.02160    -0.01891    -0.18667    -0.02019
           5     0.07995     0.02166     0.01621     0.00421     0.07775     0.00022
           6    -0.08089     0.03481    -0.02900    -0.01035     0.02173     0.01052
           7     0.06660     0.01299    -0.06319    -0.06154    -0.01498     0.10473
           8     0.02032     0.00763    -0.02522    -0.02643    -0.00121    -0.03214
           9    -0.02274     0.00107     0.02262    -0.00369    -0.02306     0.19346
          10     0.03500     0.00006     0.00077    -0.00022     0.00159     0.00001
          11    -0.09034    -0.00021    -0.00162     0.00004    -0.00537    -0.00029
          12    -0.01218     0.00288    -0.00110     0.00034     0.00249     0.00067
          13     0.18555     0.50404    -0.07363     0.28009    -0.14213    -0.01572
          14    -0.03678    -0.01432    -0.00812     0.01122    -0.09608    -0.00582
          15    -0.05178    -0.15621     0.02326    -0.11619     0.10420     0.00828
          16    -0.01746     0.35562    -0.07583     0.12581    -0.00907     0.01211
          17     0.02557    -0.47347     0.10905    -0.23159     0.16727     0.00357
          18     0.01418     0.12040    -0.01995     0.08468    -0.10374    -0.00562
          19    -0.22791     0.33940    -0.13705    -0.65166    -0.11028    -0.15698
          20    -0.08241     0.10457    -0.05335    -0.17016    -0.02113    -0.05354
          21     0.07840    -0.06247     0.05395     0.12204     0.02132    -0.01566
          22     0.07740     0.19904     0.63048    -0.10302     0.00039    -0.17498
          23     0.05540     0.01897     0.01888    -0.02116     0.01018    -0.04603
          24     0.00234     0.13605     0.55993    -0.02279    -0.01107     0.00308
          25     0.25703     0.00785    -0.16305    -0.04942     0.00788    -0.01770
          26     0.02341     0.01102     0.01890    -0.01477    -0.00590     0.03472
          27     0.26519    -0.00863    -0.21166    -0.04091     0.01813    -0.12440
          28    -0.21382     0.00528    -0.00697    -0.00535    -0.00308     0.00302
          29     0.41966    -0.01883     0.01543     0.01117     0.00100    -0.00742
          30     0.17886    -0.00420     0.00487     0.00468     0.00579    -0.00220
          31    -0.05837    -0.02670    -0.00639     0.12111     0.04829    -0.00074
          32    -0.03391    -0.00691    -0.01204     0.02911     0.00833     0.01305
          33     0.05075    -0.00218     0.02903    -0.02048    -0.01112    -0.02819
          34    -0.04255    -0.00900     0.02597     0.02243     0.00568    -0.05987
          35    -0.01196     0.00334     0.02332     0.00269    -0.00234     0.02284
          36    -0.00292    -0.02476    -0.05838     0.02113     0.01550    -0.13299
          37    -0.00001     0.00084     0.00012     0.00105     0.00230     0.00017
          38    -0.00033    -0.00046    -0.00048    -0.00100    -0.00090     0.00015
          39    -0.00113    -0.00070     0.00057    -0.00004    -0.00064    -0.00042
          40    -0.00600     0.00001    -0.00008     0.00005    -0.00014    -0.00008
          41     0.01561     0.00009     0.00014    -0.00030     0.00049     0.00023
          42     0.00194    -0.00045     0.00021     0.00013    -0.00041    -0.00013

                   37          38          39          40          41          42
 
 P.Frequency     3100.41     3102.76     3153.69     3262.85     3439.61     3577.75
 
           1    -0.00004    -0.00009    -0.05201     0.04502     0.00003    -0.00035
           2    -0.00028     0.00032     0.04179     0.06605    -0.00012    -0.00014
           3     0.00019    -0.00013    -0.00520    -0.04942    -0.00000     0.00019
           4     0.00039    -0.00104     0.00759    -0.00037    -0.00042    -0.00107
           5     0.00015    -0.00059    -0.00326     0.00199    -0.00029     0.00051
           6    -0.00053     0.00085    -0.00077    -0.00098     0.00022     0.00055
           7    -0.00077     0.04323    -0.00058    -0.00005     0.00625     0.00159
           8    -0.00052     0.03013    -0.00017    -0.00014     0.00112     0.00114
           9     0.00121    -0.06358     0.00058    -0.00002     0.00164    -0.00057
          10     0.01544     0.00035    -0.00007    -0.00003    -0.00000     0.00000
          11     0.03588     0.00051     0.00007    -0.00016    -0.00004     0.00003
          12    -0.07221    -0.00139    -0.00015    -0.00023     0.00003    -0.00010
          13     0.00020     0.00056     0.09268     0.07626    -0.00035     0.00077
          14     0.00152    -0.00484    -0.70006    -0.48931     0.00113    -0.00129
          15    -0.00010     0.00248     0.33874     0.23306    -0.00064    -0.00022
          16     0.00050     0.00336     0.43753    -0.60050     0.00106     0.00145
          17     0.00011     0.00154     0.24584    -0.31452     0.00071     0.00032
          18    -0.00058    -0.00223    -0.26970     0.35764    -0.00012    -0.00110
          19    -0.00044     0.00586    -0.00233    -0.00201     0.00282     0.26508
          20    -0.00033     0.00865     0.00043     0.00060    -0.00378    -0.45203
          21    -0.00074    -0.01156    -0.00122     0.00267     0.00555     0.80563
          22     0.00939    -0.52368     0.00313    -0.00004    -0.01593    -0.00706
          23     0.00610    -0.34479     0.00218    -0.00004    -0.00654    -0.00506
          24    -0.01293     0.71877    -0.00513     0.00016     0.01250     0.00687
          25    -0.00097     0.01908    -0.00053    -0.00097    -0.58444     0.00502
          26    -0.00074     0.00727     0.00006    -0.00071    -0.34885     0.00399
          27     0.00081    -0.00741     0.00045     0.00115     0.68049    -0.00359
          28    -0.18806    -0.00315     0.00006    -0.00010     0.00038    -0.00021
          29    -0.40516    -0.00760    -0.00007    -0.00046     0.00001    -0.00005
          30     0.84385     0.01508     0.00056     0.00156    -0.00121     0.00085
          31    -0.00016     0.00042     0.00037    -0.00044     0.00018    -0.01917
          32     0.00020    -0.00041    -0.00005    -0.00016     0.00039     0.03206
          33     0.00026     0.00038    -0.00010     0.00032    -0.00015    -0.05935
          34     0.00002    -0.00086     0.00009     0.00009     0.03739    -0.00002
          35     0.00007    -0.00128    -0.00001     0.00008     0.02444    -0.00036
          36    -0.00017     0.00312    -0.00002    -0.00006    -0.05171     0.00087
          37    -0.00010    -0.00003    -0.00000     0.00005     0.00015    -0.00001
          38     0.00016     0.00003    -0.00016    -0.00006     0.00013    -0.00014
          39     0.00015     0.00003     0.00011     0.00010     0.00006     0.00009
          40     0.00018    -0.00001    -0.00000    -0.00000    -0.00000    -0.00000
          41    -0.00095     0.00002     0.00000     0.00003     0.00001    -0.00001
          42     0.00042     0.00001     0.00002     0.00000    -0.00001     0.00001



 ----------------------------------------------------------------------------
 Normal Eigenvalue ||    Projected Derivative Dipole Moments (debye/angs)
  Mode   [cm**-1]  ||      [d/dqX]             [d/dqY]           [d/dqZ]
 ------ ---------- || ------------------ ------------------ -----------------
    1       -0.000 ||       0.015               0.056             0.055
    2       -0.000 ||       0.069               0.036            -0.031
    3       -0.000 ||       0.019              -0.090            -0.135
    4        0.000 ||       0.110               0.001            -0.121
    5        0.000 ||      -0.096              -0.096            -0.015
    6        0.000 ||      -0.098              -0.011             0.094
    7       38.279 ||      -0.004               0.112             0.068
    8       67.613 ||       0.013               0.062            -0.019
    9      118.213 ||      -0.104              -0.092            -0.044
   10      142.327 ||       0.201               0.022             0.081
   11      180.844 ||       0.169               0.214            -0.168
   12      210.151 ||      -0.021              -0.019             0.167
   13      291.261 ||       0.019              -0.096             0.150
   14      365.531 ||       0.001               0.410            -0.066
   15      402.285 ||      -0.200              -0.194            -0.351
   16      474.822 ||      -0.510              -0.698            -0.953
   17      538.938 ||       0.112              -0.024             0.576
   18      604.308 ||       0.007              -0.538            -0.124
   19      695.132 ||      -0.418              -0.163             0.156
   20      753.308 ||      -0.402               1.301             0.223
   21      784.516 ||      -0.305               0.605            -0.093
   22      814.657 ||       0.495               0.532             0.299
   23      828.861 ||       0.293              -0.770            -0.316
   24      879.083 ||       0.144               0.366             0.754
   25      921.966 ||      -0.087               0.178            -0.202
   26     1063.712 ||      -0.551               1.902             0.456
   27     1072.827 ||       0.250              -0.862            -0.217
   28     1101.169 ||      -0.688               0.253             0.196
   29     1201.835 ||       0.008               0.697            -1.021
   30     1255.469 ||      -0.855              -1.653            -0.406
   31     1271.821 ||       1.859               0.166             0.444
   32     1391.970 ||       0.389              -0.093             0.118
   33     1429.819 ||      -0.223               0.096            -0.318
   34     1476.477 ||      -1.385              -0.385            -0.279
   35     1676.699 ||      -1.764               0.389            -0.059
   36     1734.024 ||       1.292               0.145             1.258
   37     3100.407 ||       0.005               0.040            -0.192
   38     3102.760 ||       0.474               0.426            -0.643
   39     3153.694 ||       0.119               0.160            -0.102
   40     3262.847 ||      -0.011               0.260            -0.075
   41     3439.613 ||       0.169              -0.030             0.129
   42     3577.748 ||       0.080              -0.346             0.692
 ----------------------------------------------------------------------------



  
  
 ----------------------------------------------------------------------------
 Normal Eigenvalue ||           Projected Infra Red Intensities
  Mode   [cm**-1]  || [atomic units] [(debye/angs)**2] [(KM/mol)] [arbitrary]
 ------ ---------- || -------------- ----------------- ---------- -----------
    1       -0.000 ||    0.000277           0.006         0.270       0.082
    2       -0.000 ||    0.000306           0.007         0.299       0.090
    3       -0.000 ||    0.001163           0.027         1.134       0.343
    4        0.000 ||    0.001159           0.027         1.130       0.342
    5        0.000 ||    0.000807           0.019         0.787       0.238
    6        0.000 ||    0.000798           0.018         0.778       0.235
    7       38.279 ||    0.000742           0.017         0.724       0.219
    8       67.613 ||    0.000191           0.004         0.186       0.056
    9      118.213 ||    0.000919           0.021         0.896       0.271
   10      142.327 ||    0.002053           0.047         2.001       0.605
   11      180.844 ||    0.004436           0.102         4.325       1.307
   12      210.151 ||    0.001251           0.029         1.219       0.369
   13      291.261 ||    0.001384           0.032         1.349       0.408
   14      365.531 ||    0.007485           0.173         7.297       2.206
   15      402.285 ||    0.008718           0.201         8.499       2.570
   16      474.822 ||    0.071777           1.656        69.972      21.155
   17      538.938 ||    0.014967           0.345        14.591       4.411
   18      604.308 ||    0.013222           0.305        12.889       3.897
   19      695.132 ||    0.009787           0.226         9.541       2.885
   20      753.308 ||    0.082526           1.904        80.450      24.323
   21      784.516 ||    0.020260           0.467        19.751       5.972
   22      814.657 ||    0.026737           0.617        26.065       7.880
   23      828.861 ||    0.033708           0.778        32.860       9.935
   24      879.083 ||    0.031345           0.723        30.557       9.239
   25      921.966 ||    0.003481           0.080         3.393       1.026
   26     1063.712 ||    0.178875           4.127       174.376      52.721
   27     1072.827 ||    0.036952           0.853        36.022      10.891
   28     1101.169 ||    0.024979           0.576        24.351       7.362
   29     1201.835 ||    0.066267           1.529        64.600      19.531
   30     1255.469 ||    0.157328           3.630       153.371      46.370
   31     1271.821 ||    0.159486           3.679       155.475      47.007
   32     1391.970 ||    0.007531           0.174         7.342       2.220
   33     1429.819 ||    0.006939           0.160         6.765       2.045
   34     1476.477 ||    0.092962           2.145        90.624      27.399
   35     1676.699 ||    0.141550           3.266       137.990      41.720
   36     1734.024 ||    0.141852           3.273       138.284      41.809
   37     3100.407 ||    0.001671           0.039         1.629       0.493
   38     3102.760 ||    0.035533           0.820        34.639      10.473
   39     3153.694 ||    0.002172           0.050         2.118       0.640
   40     3262.847 ||    0.003173           0.073         3.093       0.935
   41     3439.613 ||    0.002006           0.046         1.955       0.591
   42     3577.748 ||    0.026220           0.605        25.561       7.728
 ----------------------------------------------------------------------------



 vib:animation  F

 Task  times  cpu:      420.0s     wall:      420.0s


                                NWChem Input Module
                                -------------------


 Summary of allocated global arrays
-----------------------------------
  No active global arrays


MA_summarize_allocated_blocks: starting scan ...
MA_summarize_allocated_blocks: scan completed: 0 heap blocks, 0 stack blocks
MA usage statistics:

	allocation statistics:
					      heap	     stack
					      ----	     -----
	current number of blocks	         0	         0
	maximum number of blocks	        25	        54
	current total bytes		         0	         0
	maximum total bytes		 655026176	  90079400
	maximum total K-bytes		    655027	     90080
	maximum total M-bytes		       656	        91


                                     CITATION
                                     --------
                Please cite the following reference when publishing
                           results obtained with NWChem:

          E. Apra, E. J. Bylaska, W. A. de Jong, N. Govind, K. Kowalski,
       T. P. Straatsma, M. Valiev, H. J. J. van Dam, Y. Alexeev, J. Anchell,
       V. Anisimov, F. W. Aquino, R. Atta-Fynn, J. Autschbach, N. P. Bauman,
     J. C. Becca, D. E. Bernholdt, K. Bhaskaran-Nair, S. Bogatko, P. Borowski,
         J. Boschen, J. Brabec, A. Bruner, E. Cauet, Y. Chen, G. N. Chuev,
      C. J. Cramer, J. Daily, M. J. O. Deegan, T. H. Dunning Jr., M. Dupuis,
   K. G. Dyall, G. I. Fann, S. A. Fischer, A. Fonari, H. Fruchtl, L. Gagliardi,
      J. Garza, N. Gawande, S. Ghosh, K. Glaesemann, A. W. Gotz, J. Hammond,
       V. Helms, E. D. Hermes, K. Hirao, S. Hirata, M. Jacquelin, L. Jensen,
   B. G. Johnson, H. Jonsson, R. A. Kendall, M. Klemm, R. Kobayashi, V. Konkov,
      S. Krishnamoorthy, M. Krishnan, Z. Lin, R. D. Lins, R. J. Littlefield,
      A. J. Logsdail, K. Lopata, W. Ma, A. V. Marenich, J. Martin del Campo,
   D. Mejia-Rodriguez, J. E. Moore, J. M. Mullin, T. Nakajima, D. R. Nascimento,
    J. A. Nichols, P. J. Nichols, J. Nieplocha, A. Otero-de-la-Roza, B. Palmer,
    A. Panyala, T. Pirojsirikul, B. Peng, R. Peverati, J. Pittner, L. Pollack,
   R. M. Richard, P. Sadayappan, G. C. Schatz, W. A. Shelton, D. W. Silverstein,
   D. M. A. Smith, T. A. Soares, D. Song, M. Swart, H. L. Taylor, G. S. Thomas,
            V. Tipparaju, D. G. Truhlar, K. Tsemekhman, T. Van Voorhis,
      A. Vazquez-Mayagoitia, P. Verma, O. Villa, A. Vishnu, K. D. Vogiatzis,
        D. Wang, J. H. Weare, M. J. Williamson, T. L. Windus, K. Wolinski,
        A. T. Wong, Q. Wu, C. Yang, Q. Yu, M. Zacharias, Z. Zhang, Y. Zhao,
                                and R. J. Harrison
                        "NWChem: Past, present, and future
                         J. Chem. Phys. 152, 184102 (2020)
                               doi:10.1063/5.0004997

                                      AUTHORS
                                      -------
  E. Apra, E. J. Bylaska, N. Govind, K. Kowalski, M. Valiev, D. Mejia-Rodriguez,
       A. Kunitsa, N. P. Bauman, A. Panyala, W. A. de Jong, T. P. Straatsma,
   H. J. J. van Dam, D. Wang, T. L. Windus, J. Hammond, J. Autschbach, A. Woods,
    K. Bhaskaran-Nair, J. Brabec, K. Lopata, S. A. Fischer, S. Krishnamoorthy,
     M. Jacquelin, W. Ma, M. Klemm, O. Villa, Y. Chen, V. Anisimov, F. Aquino,
     S. Hirata, M. T. Hackler, E. Hermes, L. Jensen, J. E. Moore, J. C. Becca,
      V. Konjkov, T. Risthaus, M. Malagoli, A. Marenich, A. Otero-de-la-Roza,
        J. Mullin, P. Nichols, R. Peverati, J. Pittner, Y. Zhao, P.-D. Fan,
        A. Fonari, M. J. Williamson, R. J. Harrison, J. R. Rehr, M. Dupuis,
     D. Silverstein, D. M. A. Smith, J. Nieplocha, V. Tipparaju, M. Krishnan,
     B. E. Van Kuiken, A. Vazquez-Mayagoitia, M. Swart, Q. Wu, T. Van Voorhis,
     A. A. Auer, M. Nooijen, L. D. Crosby, E. Brown, G. Cisneros, G. I. Fann,
   H. Fruchtl, J. Garza, K. Hirao, R. A. Kendall, J. A. Nichols, K. Tsemekhman,
    K. Wolinski, J. Anchell, D. E. Bernholdt, P. Borowski, T. Clark, D. Clerc,
   H. Dachsel, M. J. O. Deegan, K. Dyall, D. Elwood, E. Glendening, M. Gutowski,
   A. C. Hess, J. Jaffe, B. G. Johnson, J. Ju, R. Kobayashi, R. Kutteh, Z. Lin,
   R. Littlefield, X. Long, B. Meng, T. Nakajima, S. Niu, L. Pollack, M. Rosing,
   K. Glaesemann, G. Sandrone, M. Stave, H. Taylor, G. Thomas, J. H. van Lenthe,
                               A. T. Wong, Z. Zhang.

 Total times  cpu:      855.9s     wall:      855.9s
