 argument  1 = xyz21.in
                                         
                                         


             Northwest Computational Chemistry Package (NWChem) 7.2.3
             --------------------------------------------------------


                    Environmental Molecular Sciences Laboratory
                       Pacific Northwest National Laboratory
                                Richland, WA 99352

                              Copyright (c) 1994-2022
                       Pacific Northwest National Laboratory
                            Battelle Memorial Institute

             NWChem is an open-source computational chemistry package
                        distributed under the terms of the
                      Educational Community License (ECL) 2.0
             A copy of the license is included with this distribution
                              in the LICENSE.TXT file

                                  ACKNOWLEDGMENT
                                  --------------

            This software and its documentation were developed at the
            EMSL at Pacific Northwest National Laboratory, a multiprogram
            national laboratory, operated for the U.S. Department of Energy
            by Battelle under Contract Number DE-AC05-76RL01830. Support
            for this work was provided by the Department of Energy Office
            of Biological and Environmental Research, Office of Basic
            Energy Sciences, and the Office of Advanced Scientific Computing.


           Job information
           ---------------

    hostname        = gpu001
    program         = /home/rrichard/nwchem/bin/LINUX64/nwchem
    date            = Wed Jul  9 00:09:31 2025

    compiled        = Mon_Jul_07_13:04:19_2025
    source          = /home/rrichard/nwchem
    nwchem branch   = 7.2.3
    nwchem revision = v7.2.0-beta1-1473-g5687662257
    ga revision     = 5.9.2
    use scalapack   = T
    input           = xyz21.in
    prefix          = xyz21.
    data base       = ./xyz21.db
    status          = startup
    nproc           =        2
    time left       =     -1s



           Memory information
           ------------------

    heap     =    431126723 doubles =     3289.2 Mbytes
    stack    =    431126727 doubles =     3289.2 Mbytes
    global   =    246358129 doubles =     1879.6 Mbytes (distinct from heap & stack)
    total    =   1108611579 doubles =     8458.0 Mbytes
    verify   = yes
    hardfail = no 


           Directory information
           ---------------------

  0 permanent = .
  0 scratch   = .




                                NWChem Input Module
                                -------------------



 Scaling coordinates for geometry "geometry" by  1.889725989
 (inverse scale =  0.529177249)

 C1  symmetry detected

          ------
          auto-z
          ------
  no constraints, skipping    0.0000000000000000     
  no constraints, skipping    0.0000000000000000     


                             Geometry "geometry" -> ""
                             -------------------------

 Output coordinates in angstroms (scale by  1.889725989 to convert to a.u.)

  No.       Tag          Charge          X              Y              Z
 ---- ---------------- ---------- -------------- -------------- --------------
    1 C                    6.0000    -0.08581061    -0.16699872     1.13864082
    2 C                    6.0000    -0.78730672    -0.96290365     0.06256759
    3 C                    6.0000     0.57510272     1.73244141    -0.24825284
    4 H                    1.0000     2.65136347     0.47382690     1.18735062
    5 H                    1.0000     0.54281899    -0.87191587     1.71540405
    6 H                    1.0000    -0.84454936     0.38217677     1.70327957
    7 H                    1.0000    -1.20093735    -0.28255997    -0.64718446
    8 H                    1.0000     1.44200231     2.22477575    -0.61971699
    9 N                    7.0000     0.87782134     0.69327149     0.54530646
   10 O                    8.0000     2.19499560     0.09347524     0.38273567
   11 F                    9.0000    -1.68449713    -1.78307408     0.68666475
   12 S                   16.0000    -0.93673309     2.38166119    -0.43917844
   13 Cl                  17.0000     0.33181641    -1.95300897    -0.88758968

      Atomic Mass 
      ----------- 

      C                 12.000000
      H                  1.007825
      N                 14.003070
      O                 15.994910
      F                 18.998400
      S                 31.972070
      Cl                34.968850


 Effective nuclear repulsion energy (a.u.)     547.0869220667

            Nuclear Dipole moment (a.u.) 
            ----------------------------
        X                 Y               Z
 ---------------- ---------------- ----------------
     0.0000000000     0.0000000000     0.0000000000



                                Z-matrix (autoz)
                                -------- 

 Units are Angstrom for bonds and degrees for angles

      Type          Name      I     J     K     L     M      Value
      ----------- --------  ----- ----- ----- ----- ----- ----------
    1 Stretch                  1     2                       1.51112
    2 Stretch                  1     5                       1.10668
    3 Stretch                  1     6                       1.09366
    4 Stretch                  1     9                       1.42151
    5 Stretch                  2     7                       1.06663
    6 Stretch                  2    11                       1.36643
    7 Stretch                  2    13                       1.77075
    8 Stretch                  3     8                       1.06390
    9 Stretch                  3     9                       1.34211
   10 Stretch                  3    12                       1.65638
   11 Stretch                  4    10                       1.00017
   12 Stretch                  9    10                       1.45641
   13 Bend                     1     2     7               108.53675
   14 Bend                     1     2    11               107.19966
   15 Bend                     1     2    13               112.53284
   16 Bend                     1     9     3               124.22722
   17 Bend                     1     9    10               114.23268
   18 Bend                     2     1     5               107.41720
   19 Bend                     2     1     6               108.06317
   20 Bend                     2     1     9               109.64613
   21 Bend                     3     9    10               117.18496
   22 Bend                     4    10     9                99.57008
   23 Bend                     5     1     6               116.41425
   24 Bend                     5     1     9               102.58848
   25 Bend                     6     1     9               112.45155
   26 Bend                     7     2    11               115.60397
   27 Bend                     7     2    13               104.16303
   28 Bend                     8     3     9               112.39353
   29 Bend                     8     3    12               121.47304
   30 Bend                     9     3    12               125.27549
   31 Bend                    11     2    13               108.93133
   32 Torsion                  1     9     3     8        -177.74337
   33 Torsion                  1     9     3    12          12.78671
   34 Torsion                  1     9    10     4         -98.66260
   35 Torsion                  2     1     9     3          66.77600
   36 Torsion                  2     1     9    10         -89.02904
   37 Torsion                  3     9     1     5        -179.30911
   38 Torsion                  3     9     1     6         -53.47237
   39 Torsion                  3     9    10     4         103.72956
   40 Torsion                  5     1     2     7        -166.10913
   41 Torsion                  5     1     2    11          68.37521
   42 Torsion                  5     1     2    13         -51.36829
   43 Torsion                  5     1     9    10          24.88585
   44 Torsion                  6     1     2     7          67.54080
   45 Torsion                  6     1     2    11         -57.97487
   46 Torsion                  6     1     2    13        -177.71836
   47 Torsion                  6     1     9    10         150.72259
   48 Torsion                  7     2     1     9         -55.34444
   49 Torsion                  8     3     9    10         -22.58681
   50 Torsion                  9     1     2    11         179.13990
   51 Torsion                  9     1     2    13          59.39640
   52 Torsion                 10     9     3    12         167.94328


            XYZ format geometry
            -------------------
    13
 geometry
 C                    -0.08581061    -0.16699872     1.13864082
 C                    -0.78730672    -0.96290365     0.06256759
 C                     0.57510272     1.73244141    -0.24825284
 H                     2.65136347     0.47382690     1.18735062
 H                     0.54281899    -0.87191587     1.71540405
 H                    -0.84454936     0.38217677     1.70327957
 H                    -1.20093735    -0.28255997    -0.64718446
 H                     1.44200231     2.22477575    -0.61971699
 N                     0.87782134     0.69327149     0.54530646
 O                     2.19499560     0.09347524     0.38273567
 F                    -1.68449713    -1.78307408     0.68666475
 S                    -0.93673309     2.38166119    -0.43917844
 Cl                    0.33181641    -1.95300897    -0.88758968

 ==============================================================================
                                internuclear distances
 ------------------------------------------------------------------------------
       center one      |      center two      | atomic units |  angstroms
 ------------------------------------------------------------------------------
    2 C                |   1 C                |     2.85561  |     1.51112
    5 H                |   1 C                |     2.09132  |     1.10668
    6 H                |   1 C                |     2.06672  |     1.09366
    7 H                |   2 C                |     2.01564  |     1.06663
    8 H                |   3 C                |     2.01049  |     1.06390
    9 N                |   1 C                |     2.68627  |     1.42151
    9 N                |   3 C                |     2.53621  |     1.34211
   10 O                |   4 H                |     1.89005  |     1.00017
   10 O                |   9 N                |     2.75222  |     1.45641
   11 F                |   2 C                |     2.58218  |     1.36643
   12 S                |   3 C                |     3.13010  |     1.65638
   13 Cl               |   2 C                |     3.34623  |     1.77075
 ------------------------------------------------------------------------------
                         number of included internuclear distances:         12
 ==============================================================================



 ==============================================================================
                                 internuclear angles
 ------------------------------------------------------------------------------
        center 1       |       center 2       |       center 3       |  degrees
 ------------------------------------------------------------------------------
    2 C                |   1 C                |   5 H                |   107.42
    2 C                |   1 C                |   6 H                |   108.06
    2 C                |   1 C                |   9 N                |   109.65
    5 H                |   1 C                |   6 H                |   116.41
    5 H                |   1 C                |   9 N                |   102.59
    6 H                |   1 C                |   9 N                |   112.45
    1 C                |   2 C                |   7 H                |   108.54
    1 C                |   2 C                |  11 F                |   107.20
    1 C                |   2 C                |  13 Cl               |   112.53
    7 H                |   2 C                |  11 F                |   115.60
    7 H                |   2 C                |  13 Cl               |   104.16
   11 F                |   2 C                |  13 Cl               |   108.93
    8 H                |   3 C                |   9 N                |   112.39
    8 H                |   3 C                |  12 S                |   121.47
    9 N                |   3 C                |  12 S                |   125.28
    1 C                |   9 N                |   3 C                |   124.23
    1 C                |   9 N                |  10 O                |   114.23
    3 C                |   9 N                |  10 O                |   117.18
    4 H                |  10 O                |   9 N                |    99.57
 ------------------------------------------------------------------------------
                            number of included internuclear angles:         19
 ==============================================================================





 Summary of "ao basis" -> "" (cartesian)
 ------------------------------------------------------------------------------
       Tag                 Description            Shells   Functions and Types
 ---------------- ------------------------------  ------  ---------------------
 *                          cc-pvdz                   on all atoms 




                           NWChem Geometry Optimization
                           ----------------------------


  no constraints, skipping    0.0000000000000000     
 maximum gradient threshold         (gmax) =   0.000450
 rms gradient threshold             (grms) =   0.000300
 maximum cartesian step threshold   (xmax) =   0.001800
 rms cartesian step threshold       (xrms) =   0.001200
 fixed trust radius                (trust) =   0.300000
 maximum step size to saddle      (sadstp) =   0.100000
 energy precision                  (eprec) =   5.0D-06
 maximum number of steps          (nptopt) =   40
 initial hessian option           (inhess) =    0
 line search option               (linopt) =    1
 hessian update option            (modupd) =    1
 saddle point option              (modsad) =    0
 initial eigen-mode to follow     (moddir) =    0
 initial variable to follow       (vardir) =    0
 follow first negative mode     (firstneg) =    T
 apply conjugacy                    (opcg) =    F
 source of zmatrix                         =   autoz   


          -------------------
          Energy Minimization
          -------------------


 Names of Z-matrix variables 
    1              2              3              4              5         
    6              7              8              9             10         
   11             12             13             14             15         
   16             17             18             19             20         
   21             22             23             24             25         
   26             27             28             29             30         
   31             32             33             34             35         
   36             37             38             39             40         
   41             42             43             44             45         
   46             47             48             49             50         
   51             52         

 Variables with the same non-blank name are constrained to be equal


 Using diagonal initial Hessian 
 Scaling for Hessian diagonals: bonds = 1.00  angles = 0.25  torsions = 0.10

          --------
          Step   0
          --------


                         Geometry "geometry" -> "geometry"
                         ---------------------------------

 Output coordinates in angstroms (scale by  1.889725989 to convert to a.u.)

  No.       Tag          Charge          X              Y              Z
 ---- ---------------- ---------- -------------- -------------- --------------
    1 C                    6.0000    -0.08581061    -0.16699872     1.13864082
    2 C                    6.0000    -0.78730672    -0.96290365     0.06256759
    3 C                    6.0000     0.57510272     1.73244141    -0.24825284
    4 H                    1.0000     2.65136347     0.47382690     1.18735062
    5 H                    1.0000     0.54281899    -0.87191587     1.71540405
    6 H                    1.0000    -0.84454936     0.38217677     1.70327957
    7 H                    1.0000    -1.20093735    -0.28255997    -0.64718446
    8 H                    1.0000     1.44200231     2.22477575    -0.61971699
    9 N                    7.0000     0.87782134     0.69327149     0.54530646
   10 O                    8.0000     2.19499560     0.09347524     0.38273567
   11 F                    9.0000    -1.68449713    -1.78307408     0.68666475
   12 S                   16.0000    -0.93673309     2.38166119    -0.43917844
   13 Cl                  17.0000     0.33181641    -1.95300897    -0.88758968

      Atomic Mass 
      ----------- 

      C                 12.000000
      H                  1.007825
      N                 14.003070
      O                 15.994910
      F                 18.998400
      S                 31.972070
      Cl                34.968850


 Effective nuclear repulsion energy (a.u.)     547.0869220667

            Nuclear Dipole moment (a.u.) 
            ----------------------------
        X                 Y               Z
 ---------------- ---------------- ----------------
     0.0000000000     0.0000000000     0.0000000000


                                 NWChem DFT Module
                                 -----------------


                      Basis "ao basis" -> "ao basis" (cartesian)
                      -----
  C (Carbon)
  ----------
            Exponent  Coefficients 
       -------------- ---------------------------------------------------------
  1 S  6.66500000E+03  0.000692
  1 S  1.00000000E+03  0.005329
  1 S  2.28000000E+02  0.027077
  1 S  6.47100000E+01  0.101718
  1 S  2.10600000E+01  0.274740
  1 S  7.49500000E+00  0.448564
  1 S  2.79700000E+00  0.285074
  1 S  5.21500000E-01  0.015204

  2 S  6.66500000E+03 -0.000146
  2 S  1.00000000E+03 -0.001154
  2 S  2.28000000E+02 -0.005725
  2 S  6.47100000E+01 -0.023312
  2 S  2.10600000E+01 -0.063955
  2 S  7.49500000E+00 -0.149981
  2 S  2.79700000E+00 -0.127262
  2 S  5.21500000E-01  0.544529

  3 S  1.59600000E-01  1.000000

  4 P  9.43900000E+00  0.038109
  4 P  2.00200000E+00  0.209480
  4 P  5.45600000E-01  0.508557

  5 P  1.51700000E-01  1.000000

  6 D  5.50000000E-01  1.000000

  H (Hydrogen)
  ------------
            Exponent  Coefficients 
       -------------- ---------------------------------------------------------
  1 S  1.30100000E+01  0.019685
  1 S  1.96200000E+00  0.137977
  1 S  4.44600000E-01  0.478148

  2 S  1.22000000E-01  1.000000

  3 P  7.27000000E-01  1.000000

  N (Nitrogen)
  ------------
            Exponent  Coefficients 
       -------------- ---------------------------------------------------------
  1 S  9.04600000E+03  0.000700
  1 S  1.35700000E+03  0.005389
  1 S  3.09300000E+02  0.027406
  1 S  8.77300000E+01  0.103207
  1 S  2.85600000E+01  0.278723
  1 S  1.02100000E+01  0.448540
  1 S  3.83800000E+00  0.278238
  1 S  7.46600000E-01  0.015440

  2 S  9.04600000E+03 -0.000153
  2 S  1.35700000E+03 -0.001208
  2 S  3.09300000E+02 -0.005992
  2 S  8.77300000E+01 -0.024544
  2 S  2.85600000E+01 -0.067459
  2 S  1.02100000E+01 -0.158078
  2 S  3.83800000E+00 -0.121831
  2 S  7.46600000E-01  0.549003

  3 S  2.24800000E-01  1.000000

  4 P  1.35500000E+01  0.039919
  4 P  2.91700000E+00  0.217169
  4 P  7.97300000E-01  0.510319

  5 P  2.18500000E-01  1.000000

  6 D  8.17000000E-01  1.000000

  O (Oxygen)
  ----------
            Exponent  Coefficients 
       -------------- ---------------------------------------------------------
  1 S  1.17200000E+04  0.000710
  1 S  1.75900000E+03  0.005470
  1 S  4.00800000E+02  0.027837
  1 S  1.13700000E+02  0.104800
  1 S  3.70300000E+01  0.283062
  1 S  1.32700000E+01  0.448719
  1 S  5.02500000E+00  0.270952
  1 S  1.01300000E+00  0.015458

  2 S  1.17200000E+04 -0.000160
  2 S  1.75900000E+03 -0.001263
  2 S  4.00800000E+02 -0.006267
  2 S  1.13700000E+02 -0.025716
  2 S  3.70300000E+01 -0.070924
  2 S  1.32700000E+01 -0.165411
  2 S  5.02500000E+00 -0.116955
  2 S  1.01300000E+00  0.557368

  3 S  3.02300000E-01  1.000000

  4 P  1.77000000E+01  0.043018
  4 P  3.85400000E+00  0.228913
  4 P  1.04600000E+00  0.508728

  5 P  2.75300000E-01  1.000000

  6 D  1.18500000E+00  1.000000

  F (Fluorine)
  ------------
            Exponent  Coefficients 
       -------------- ---------------------------------------------------------
  1 S  1.47100000E+04  0.000721
  1 S  2.20700000E+03  0.005553
  1 S  5.02800000E+02  0.028267
  1 S  1.42600000E+02  0.106444
  1 S  4.64700000E+01  0.286814
  1 S  1.67000000E+01  0.448641
  1 S  6.35600000E+00  0.264761
  1 S  1.31600000E+00  0.015333

  2 S  1.47100000E+04 -0.000165
  2 S  2.20700000E+03 -0.001308
  2 S  5.02800000E+02 -0.006495
  2 S  1.42600000E+02 -0.026691
  2 S  4.64700000E+01 -0.073690
  2 S  1.67000000E+01 -0.170776
  2 S  6.35600000E+00 -0.112327
  2 S  1.31600000E+00  0.562814

  3 S  3.89700000E-01  1.000000

  4 P  2.26700000E+01  0.044878
  4 P  4.97700000E+00  0.235718
  4 P  1.34700000E+00  0.508521

  5 P  3.47100000E-01  1.000000

  6 D  1.64000000E+00  1.000000

  S (Sulphur)
  -----------
            Exponent  Coefficients 
       -------------- ---------------------------------------------------------
  1 S  1.10800000E+05  0.000248
  1 S  1.66100000E+04  0.001920
  1 S  3.78100000E+03  0.009962
  1 S  1.07100000E+03  0.040298
  1 S  3.49800000E+02  0.128604
  1 S  1.26300000E+02  0.303480
  1 S  4.92600000E+01  0.421432
  1 S  2.01600000E+01  0.230781
  1 S  5.72000000E+00  0.017897
  1 S  2.18200000E+00 -0.002975
  1 S  4.32700000E-01  0.000850

  2 S  1.10800000E+05 -0.000069
  2 S  1.66100000E+04 -0.000528
  2 S  3.78100000E+03 -0.002797
  2 S  1.07100000E+03 -0.011265
  2 S  3.49800000E+02 -0.038883
  2 S  1.26300000E+02 -0.099503
  2 S  4.92600000E+01 -0.199740
  2 S  2.01600000E+01 -0.123360
  2 S  5.72000000E+00  0.513194
  2 S  2.18200000E+00  0.607120
  2 S  4.32700000E-01  0.039675

  3 S  1.10800000E+05  0.000020
  3 S  1.66100000E+04  0.000153
  3 S  3.78100000E+03  0.000810
  3 S  1.07100000E+03  0.003290
  3 S  3.49800000E+02  0.011297
  3 S  1.26300000E+02  0.029639
  3 S  4.92600000E+01  0.059985
  3 S  2.01600000E+01  0.041325
  3 S  5.72000000E+00 -0.207474
  3 S  2.18200000E+00 -0.392889
  3 S  4.32700000E-01  0.632840

  4 S  1.57000000E-01  1.000000

  5 P  3.99700000E+02  0.004475
  5 P  9.41900000E+01  0.034171
  5 P  2.97500000E+01  0.144250
  5 P  1.07700000E+01  0.353928
  5 P  4.11900000E+00  0.459085
  5 P  1.62500000E+00  0.206383
  5 P  4.72600000E-01  0.010214

  6 P  3.99700000E+02 -0.001163
  6 P  9.41900000E+01 -0.008657
  6 P  2.97500000E+01 -0.039089
  6 P  1.07700000E+01 -0.093463
  6 P  4.11900000E+00 -0.147994
  6 P  1.62500000E+00  0.030190
  6 P  4.72600000E-01  0.561573

  7 P  1.40700000E-01  1.000000

  8 D  4.79000000E-01  1.000000

  Cl (Chlorine)
  -------------
            Exponent  Coefficients 
       -------------- ---------------------------------------------------------
  1 S  1.27900000E+05  0.000241
  1 S  1.91700000E+04  0.001871
  1 S  4.36300000E+03  0.009708
  1 S  1.23600000E+03  0.039315
  1 S  4.03600000E+02  0.125932
  1 S  1.45700000E+02  0.299341
  1 S  5.68100000E+01  0.421886
  1 S  2.32300000E+01  0.237201
  1 S  6.64400000E+00  0.019153
  1 S  2.57500000E+00 -0.003348
  1 S  5.37100000E-01  0.000930

  2 S  1.27900000E+05 -0.000068
  2 S  1.91700000E+04 -0.000522
  2 S  4.36300000E+03 -0.002765
  2 S  1.23600000E+03 -0.011154
  2 S  4.03600000E+02 -0.038592
  2 S  1.45700000E+02 -0.099485
  2 S  5.68100000E+01 -0.201392
  2 S  2.32300000E+01 -0.130313
  2 S  6.64400000E+00  0.509443
  2 S  2.57500000E+00  0.610725
  2 S  5.37100000E-01  0.042155

  3 S  1.27900000E+05  0.000020
  3 S  1.91700000E+04  0.000158
  3 S  4.36300000E+03  0.000834
  3 S  1.23600000E+03  0.003399
  3 S  4.03600000E+02  0.011674
  3 S  1.45700000E+02  0.030962
  3 S  5.68100000E+01  0.062953
  3 S  2.32300000E+01  0.046026
  3 S  6.64400000E+00 -0.219312
  3 S  2.57500000E+00 -0.408773
  3 S  5.37100000E-01  0.638465

  4 S  1.93800000E-01  1.000000

  5 P  4.17600000E+02  0.005260
  5 P  9.83300000E+01  0.039833
  5 P  3.10400000E+01  0.164655
  5 P  1.11900000E+01  0.387322
  5 P  4.24900000E+00  0.457072
  5 P  1.62400000E+00  0.151636
  5 P  5.32200000E-01  0.001816

  6 P  4.17600000E+02 -0.001436
  6 P  9.83300000E+01 -0.010780
  6 P  3.10400000E+01 -0.047008
  6 P  1.11900000E+01 -0.111030
  6 P  4.24900000E+00 -0.153275
  6 P  1.62400000E+00  0.089461
  6 P  5.32200000E-01  0.579444

  7 P  1.62000000E-01  1.000000

  8 D  6.00000000E-01  1.000000



 Summary of "ao basis" -> "ao basis" (cartesian)
 ------------------------------------------------------------------------------
       Tag                 Description            Shells   Functions and Types
 ---------------- ------------------------------  ------  ---------------------
 C                          cc-pvdz                  6       15   3s2p1d
 H                          cc-pvdz                  3        5   2s1p
 N                          cc-pvdz                  6       15   3s2p1d
 O                          cc-pvdz                  6       15   3s2p1d
 F                          cc-pvdz                  6       15   3s2p1d
 S                          cc-pvdz                  8       19   4s3p1d
 Cl                         cc-pvdz                  8       19   4s3p1d




 Summary of "ao basis" -> "ao basis" (cartesian)
 ------------------------------------------------------------------------------
       Tag                 Description            Shells   Functions and Types
 ---------------- ------------------------------  ------  ---------------------
 C                          cc-pvdz                  6       15   3s2p1d
 H                          cc-pvdz                  3        5   2s1p
 N                          cc-pvdz                  6       15   3s2p1d
 O                          cc-pvdz                  6       15   3s2p1d
 F                          cc-pvdz                  6       15   3s2p1d
 S                          cc-pvdz                  8       19   4s3p1d
 Cl                         cc-pvdz                  8       19   4s3p1d


  Caching 1-el integrals 

            General Information
            -------------------
          SCF calculation type: DFT
          Wavefunction type:  closed shell.
          No. of atoms     :    13
          No. of electrons :    80
           Alpha electrons :    40
            Beta electrons :    40
          Charge           :     0
          Spin multiplicity:     1
          Use of symmetry is: off; symmetry adaption is: off
          Maximum number of iterations:  50
          AO basis - number of functions:   153
                     number of shells:    67
          Convergence on energy requested:  1.00D-06
          Convergence on density requested:  1.00D-05
          Convergence on gradient requested:  5.00D-04

              XC Information
              --------------
                         B3LYP Method XC Potential
                     Hartree-Fock (Exact) Exchange  0.200          
                        Slater Exchange Functional  0.800 local    
                    Becke 1988 Exchange Functional  0.720 non-local
              Lee-Yang-Parr Correlation Functional  0.810          
                  VWN I RPA Correlation Functional  0.190 local    

             Grid Information
             ----------------
          Grid used for XC integration:  medium    
          Radial quadrature: Mura-Knowles        
          Angular quadrature: Lebedev. 
          Tag              B.-S. Rad. Rad. Pts. Rad. Cut. Ang. Pts.
          ---              ---------- --------- --------- ---------
          C                   0.70       49          11.0       434
          H                   0.35       45          11.0       434
          N                   0.65       49           8.0       434
          O                   0.60       49          10.0       434
          F                   0.50       49          13.0       434
          S                   1.00       88          11.0       590
          Cl                  1.00       88          11.0       590
          Grid pruning is: on 
          Number of quadrature shells:   695
          Spatial weights used:  Erf1

          Convergence Information
          -----------------------
          Convergence aids based upon iterative change in 
          total energy or number of iterations. 
          Levelshifting, if invoked, occurs when the 
          HOMO/LUMO gap drops below (HL_TOL):  1.00D-02
          DIIS, if invoked, will attempt to extrapolate 
          using up to (NFOCK): 10 stored Fock matrices.

                    Damping( 0%)  Levelshifting(0.5)       DIIS
                  --------------- ------------------- ---------------
          dE  on:    start            ASAP                start   
          dE off:    2 iters         50 iters            50 iters 


      Screening Tolerance Information
      -------------------------------
          Density screening/tol_rho:  1.00D-10
          AO Gaussian exp screening on grid/accAOfunc:  14
          CD Gaussian exp screening on grid/accCDfunc:  20
          XC Gaussian exp screening on grid/accXCfunc:  20
          Schwarz screening/accCoul:  1.00D-08


      Superposition of Atomic Density Guess
      -------------------------------------

 Sum of atomic energies:       -1200.89501208

      Non-variational initial energy
      ------------------------------

 Total energy =   -1204.351788
 1-e energy   =   -2745.389252
 2-e energy   =     993.950543
 HOMO         =      -0.248620
 LUMO         =      -0.009816

   Time after variat. SCF:      1.6
   Time prior to 1st pass:      1.6
 Local filesystem for scratch_dir

 Integral file          = ./xyz21.aoints.0
 Record size in doubles =    65536    No. of integs per rec  =    43688
 Max. records in memory =     1075    Max. records in file   = 45842866
 No. of bits per label  =        8    No. of bits per value  =       64


 #quartets = 2.114D+06 #integrals = 4.977D+07 #direct =  0.0% #cached =100.0%


File balance: exchanges=     1  moved=    39  time=   0.0

 Local filesystem for scratch_dir

 Grid_pts file          = ./xyz21.gridpts.0
 Record size in doubles =  12289        No. of grid_pts per rec  =   3070
 Max. records in memory =     75        Max. recs in file   = 244475395


           Memory utilization after 1st SCF pass: 
           Heap Space remaining (MW):      359.75           359745651
          Stack Space remaining (MW):      431.13           431125596

   convergence    iter        energy       DeltaE   RMS-Dens  Diis-err    time
 ---------------- ----- ----------------- --------- --------- ---------  ------
 d= 0,ls=0.0,diis     1  -1205.2824183831 -1.75D+03  1.71D-02  2.19D+00     6.7
 d= 0,ls=0.0,diis     2  -1204.6357998867  6.47D-01  1.38D-02  7.17D+00     7.5
 d= 0,ls=0.0,diis     3  -1205.4763632909 -8.41D-01  3.90D-03  2.57D-01     8.4
 d= 0,ls=0.0,diis     4  -1205.4979702623 -2.16D-02  1.67D-03  1.16D-01     9.2
 d= 0,ls=0.0,diis     5  -1205.5128169805 -1.48D-02  2.44D-04  3.11D-03    10.1
  Resetting Diis
 d= 0,ls=0.0,diis     6  -1205.5130845815 -2.68D-04  8.80D-05  2.66D-04    11.0
 d= 0,ls=0.0,diis     7  -1205.5131106771 -2.61D-05  5.63D-05  2.94D-05    11.9
 d= 0,ls=0.0,diis     8  -1205.5131064297  4.25D-06  3.36D-05  7.35D-05    12.8
 d= 0,ls=0.0,diis     9  -1205.5131136461 -7.22D-06  6.73D-06  1.29D-06    13.7
 d= 0,ls=0.0,diis    10  -1205.5131137781 -1.32D-07  2.32D-06  1.73D-07    14.6


         Total DFT energy =    -1205.513113778087
      One electron energy =    -2748.969709689293
           Coulomb energy =     1094.433955471075
    Exchange-Corr. energy =      -98.064281626555
 Nuclear repulsion energy =      547.086922066686

 Numeric. integr. density =       80.000011302889

     Total iterative time =     13.1s



                       DFT Final Molecular Orbital Analysis
                       ------------------------------------

 Vector    1  Occ=2.000000D+00  E=-1.015516D+02
              MO Center=  3.3D-01, -2.0D+00, -8.9D-01, r^2= 3.1D-03
   Bfn.  Coefficient  Atom+Function         Bfn.  Coefficient  Atom+Function  
  ----- ------------  ---------------      ----- ------------  ---------------
   135      1.000015  13 Cl s         

 Vector    2  Occ=2.000000D+00  E=-8.885932D+01
              MO Center= -9.4D-01,  2.4D+00, -4.4D-01, r^2= 3.6D-03
   Bfn.  Coefficient  Atom+Function         Bfn.  Coefficient  Atom+Function  
  ----- ------------  ---------------      ----- ------------  ---------------
   116      1.000020  12 S  s         

 Vector    3  Occ=2.000000D+00  E=-2.471667D+01
              MO Center= -1.7D+00, -1.8D+00,  6.9D-01, r^2= 1.2D-02
   Bfn.  Coefficient  Atom+Function         Bfn.  Coefficient  Atom+Function  
  ----- ------------  ---------------      ----- ------------  ---------------
   101      1.003659  11 F  s         

 Vector    4  Occ=2.000000D+00  E=-1.923195D+01
              MO Center=  2.2D+00,  9.4D-02,  3.8D-01, r^2= 1.5D-02
   Bfn.  Coefficient  Atom+Function         Bfn.  Coefficient  Atom+Function  
  ----- ------------  ---------------      ----- ------------  ---------------
    86      1.003632  10 O  s         

 Vector    5  Occ=2.000000D+00  E=-1.445484D+01
              MO Center=  8.8D-01,  6.9D-01,  5.5D-01, r^2= 2.0D-02
   Bfn.  Coefficient  Atom+Function         Bfn.  Coefficient  Atom+Function  
  ----- ------------  ---------------      ----- ------------  ---------------
    71      1.003516   9 N  s         

 Vector    6  Occ=2.000000D+00  E=-1.032954D+01
              MO Center= -7.9D-01, -9.6D-01,  6.3D-02, r^2= 2.8D-02
   Bfn.  Coefficient  Atom+Function         Bfn.  Coefficient  Atom+Function  
  ----- ------------  ---------------      ----- ------------  ---------------
    16      1.003568   2 C  s         

 Vector    7  Occ=2.000000D+00  E=-1.029084D+01
              MO Center=  5.8D-01,  1.7D+00, -2.5D-01, r^2= 2.8D-02
   Bfn.  Coefficient  Atom+Function         Bfn.  Coefficient  Atom+Function  
  ----- ------------  ---------------      ----- ------------  ---------------
    31      1.003721   3 C  s         

 Vector    8  Occ=2.000000D+00  E=-1.026222D+01
              MO Center= -8.6D-02, -1.7D-01,  1.1D+00, r^2= 2.8D-02
   Bfn.  Coefficient  Atom+Function         Bfn.  Coefficient  Atom+Function  
  ----- ------------  ---------------      ----- ------------  ---------------
     1      1.003653   1 C  s         

 Vector    9  Occ=2.000000D+00  E=-9.463816D+00
              MO Center=  3.3D-01, -2.0D+00, -8.9D-01, r^2= 6.6D-02
   Bfn.  Coefficient  Atom+Function         Bfn.  Coefficient  Atom+Function  
  ----- ------------  ---------------      ----- ------------  ---------------
   136      1.013426  13 Cl s               137      0.028657  13 Cl s         

 Vector   10  Occ=2.000000D+00  E=-7.915625D+00
              MO Center= -9.3D-01,  2.4D+00, -4.4D-01, r^2= 7.7D-02
   Bfn.  Coefficient  Atom+Function         Bfn.  Coefficient  Atom+Function  
  ----- ------------  ---------------      ----- ------------  ---------------
   117      1.012128  12 S  s               118      0.028585  12 S  s         

 Vector   11  Occ=2.000000D+00  E=-7.226593D+00
              MO Center=  3.3D-01, -2.0D+00, -8.9D-01, r^2= 5.8D-02
   Bfn.  Coefficient  Atom+Function         Bfn.  Coefficient  Atom+Function  
  ----- ------------  ---------------      ----- ------------  ---------------
   139      0.616367  13 Cl px              140     -0.574070  13 Cl py        
   141     -0.540352  13 Cl pz        

 Vector   12  Occ=2.000000D+00  E=-7.217125D+00
              MO Center=  3.3D-01, -2.0D+00, -8.9D-01, r^2= 5.8D-02
   Bfn.  Coefficient  Atom+Function         Bfn.  Coefficient  Atom+Function  
  ----- ------------  ---------------      ----- ------------  ---------------
   140      0.807851  13 Cl py              139      0.536609  13 Cl px        
   141     -0.246150  13 Cl pz        

 Vector   13  Occ=2.000000D+00  E=-7.216662D+00
              MO Center=  3.3D-01, -2.0D+00, -8.9D-01, r^2= 5.8D-02
   Bfn.  Coefficient  Atom+Function         Bfn.  Coefficient  Atom+Function  
  ----- ------------  ---------------      ----- ------------  ---------------
   141      0.805403  13 Cl pz              139      0.577407  13 Cl px        
   140     -0.138124  13 Cl py        

 Vector   14  Occ=2.000000D+00  E=-5.879991D+00
              MO Center= -9.4D-01,  2.4D+00, -4.4D-01, r^2= 6.9D-02
   Bfn.  Coefficient  Atom+Function         Bfn.  Coefficient  Atom+Function  
  ----- ------------  ---------------      ----- ------------  ---------------
   120      0.902325  12 S  px              121     -0.416556  12 S  py        
   122      0.121815  12 S  pz        

 Vector   15  Occ=2.000000D+00  E=-5.876256D+00
              MO Center= -9.4D-01,  2.4D+00, -4.4D-01, r^2= 6.9D-02
   Bfn.  Coefficient  Atom+Function         Bfn.  Coefficient  Atom+Function  
  ----- ------------  ---------------      ----- ------------  ---------------
   122      0.849524  12 S  pz              121      0.514881  12 S  py        
   120      0.122992  12 S  px        

 Vector   16  Occ=2.000000D+00  E=-5.870569D+00
              MO Center= -9.4D-01,  2.4D+00, -4.4D-01, r^2= 6.8D-02
   Bfn.  Coefficient  Atom+Function         Bfn.  Coefficient  Atom+Function  
  ----- ------------  ---------------      ----- ------------  ---------------
   121      0.750622  12 S  py              122     -0.515131  12 S  pz        
   120      0.415998  12 S  px        

 Vector   17  Occ=2.000000D+00  E=-1.232618D+00
              MO Center= -1.6D+00, -1.7D+00,  6.0D-01, r^2= 4.4D-01
   Bfn.  Coefficient  Atom+Function         Bfn.  Coefficient  Atom+Function  
  ----- ------------  ---------------      ----- ------------  ---------------
   103      0.494699  11 F  s               102      0.463183  11 F  s         
    17      0.127297   2 C  s                20     -0.069688   2 C  py        
    19     -0.066533   2 C  px              104      0.064450  11 F  px        
   105      0.058518  11 F  py               21      0.051903   2 C  pz        
   106     -0.042454  11 F  pz               26      0.034189   2 C  dxy       

 Vector   18  Occ=2.000000D+00  E=-1.117279D+00
              MO Center=  1.7D+00,  3.7D-01,  5.0D-01, r^2= 9.4D-01
   Bfn.  Coefficient  Atom+Function         Bfn.  Coefficient  Atom+Function  
  ----- ------------  ---------------      ----- ------------  ---------------
    87      0.357151  10 O  s                88      0.323040  10 O  s         
    72      0.250293   9 N  s                73      0.206100   9 N  s         
    46      0.128335   4 H  s                32      0.075504   3 C  s         
     2      0.068270   1 C  s                90      0.065857  10 O  py        
    74      0.065134   9 N  px               89     -0.065320  10 O  px        

 Vector   19  Occ=2.000000D+00  E=-9.466847D-01
              MO Center=  9.4D-01,  5.2D-01,  4.6D-01, r^2= 2.0D+00
   Bfn.  Coefficient  Atom+Function         Bfn.  Coefficient  Atom+Function  
  ----- ------------  ---------------      ----- ------------  ---------------
    88     -0.266275  10 O  s                72      0.259223   9 N  s         
    87     -0.259108  10 O  s                73      0.255486   9 N  s         
    32      0.175845   3 C  s                 2      0.164726   1 C  s         
    74     -0.135521   9 N  px               46     -0.132391   4 H  s         
    33      0.080942   3 C  s                35     -0.077298   3 C  py        

 Vector   20  Occ=2.000000D+00  E=-8.713303D-01
              MO Center=  2.8D-02, -1.2D+00, -4.2D-01, r^2= 2.3D+00
   Bfn.  Coefficient  Atom+Function         Bfn.  Coefficient  Atom+Function  
  ----- ------------  ---------------      ----- ------------  ---------------
   137      0.409525  13 Cl s               138      0.355335  13 Cl s         
    17      0.199848   2 C  s                18      0.122842   2 C  s         
   103     -0.122429  11 F  s                32     -0.109328   3 C  s         
   102     -0.098144  11 F  s                19      0.088702   2 C  px        
    72     -0.085916   9 N  s                73     -0.083151   9 N  s         

 Vector   21  Occ=2.000000D+00  E=-7.999226D-01
              MO Center=  2.0D-01,  3.9D-01,  2.0D-01, r^2= 3.5D+00
   Bfn.  Coefficient  Atom+Function         Bfn.  Coefficient  Atom+Function  
  ----- ------------  ---------------      ----- ------------  ---------------
     2      0.250382   1 C  s                32     -0.238569   3 C  s         
   138     -0.222405  13 Cl s               137     -0.219033  13 Cl s         
    75     -0.170714   9 N  py              118     -0.171245  12 S  s         
    33     -0.154018   3 C  s                 3      0.140430   1 C  s         
    76      0.120045   9 N  pz               51      0.106384   5 H  s         

 Vector   22  Occ=2.000000D+00  E=-7.333145D-01
              MO Center= -8.7D-02,  9.1D-01, -6.1D-03, r^2= 4.1D+00
   Bfn.  Coefficient  Atom+Function         Bfn.  Coefficient  Atom+Function  
  ----- ------------  ---------------      ----- ------------  ---------------
   118      0.312180  12 S  s               119      0.276080  12 S  s         
    73     -0.202327   9 N  s                72     -0.180350   9 N  s         
   138     -0.151241  13 Cl s                17      0.146264   2 C  s         
   137     -0.144956  13 Cl s                34     -0.143974   3 C  px        
    35      0.128216   3 C  py                2      0.120639   1 C  s         

 Vector   23  Occ=2.000000D+00  E=-6.662001D-01
              MO Center= -3.5D-01, -2.1D-01,  1.4D-01, r^2= 4.2D+00
   Bfn.  Coefficient  Atom+Function         Bfn.  Coefficient  Atom+Function  
  ----- ------------  ---------------      ----- ------------  ---------------
    17      0.268899   2 C  s               138     -0.216402  13 Cl s         
   118     -0.197633  12 S  s               119     -0.183948  12 S  s         
    18      0.178796   2 C  s               137     -0.175184  13 Cl s         
    61      0.162709   7 H  s               103     -0.161164  11 F  s         
    76     -0.154602   9 N  pz               75      0.148670   9 N  py        

 Vector   24  Occ=2.000000D+00  E=-5.994354D-01
              MO Center=  5.2D-01,  3.7D-01,  4.2D-01, r^2= 4.1D+00
   Bfn.  Coefficient  Atom+Function         Bfn.  Coefficient  Atom+Function  
  ----- ------------  ---------------      ----- ------------  ---------------
    89      0.264035  10 O  px               75      0.227150   9 N  py        
   118     -0.190982  12 S  s               119     -0.185840  12 S  s         
    46      0.171241   4 H  s                56      0.160983   6 H  s         
     2      0.132120   1 C  s                 4     -0.124016   1 C  px        
    32      0.122923   3 C  s                92      0.121469  10 O  px        

 Vector   25  Occ=2.000000D+00  E=-5.813885D-01
              MO Center=  6.1D-01,  2.9D-01,  3.7D-01, r^2= 3.7D+00
   Bfn.  Coefficient  Atom+Function         Bfn.  Coefficient  Atom+Function  
  ----- ------------  ---------------      ----- ------------  ---------------
    74      0.230941   9 N  px               89     -0.224447  10 O  px        
     5     -0.198584   1 C  py               66      0.180673   8 H  s         
    46     -0.170680   4 H  s                21      0.164490   2 C  pz        
    51      0.145290   5 H  s                34      0.131055   3 C  px        
    61     -0.131036   7 H  s                91     -0.129840  10 O  pz        

 Vector   26  Occ=2.000000D+00  E=-5.460726D-01
              MO Center= -6.0D-01, -9.0D-01,  4.8D-01, r^2= 3.6D+00
   Bfn.  Coefficient  Atom+Function         Bfn.  Coefficient  Atom+Function  
  ----- ------------  ---------------      ----- ------------  ---------------
   104      0.313505  11 F  px               20     -0.282059   2 C  py        
   106     -0.239321  11 F  pz              107      0.187612  11 F  px        
    76      0.164723   9 N  pz              103     -0.162678  11 F  s         
    91      0.150970  10 O  pz              105      0.143296  11 F  py        
   109     -0.141292  11 F  pz               19     -0.130886   2 C  px        

 Vector   27  Occ=2.000000D+00  E=-5.220594D-01
              MO Center=  2.1D-01,  3.8D-01,  2.6D-02, r^2= 4.9D+00
   Bfn.  Coefficient  Atom+Function         Bfn.  Coefficient  Atom+Function  
  ----- ------------  ---------------      ----- ------------  ---------------
    66     -0.247536   8 H  s                21      0.226032   2 C  pz        
    35     -0.205511   3 C  py               76     -0.182765   9 N  pz        
   104      0.183021  11 F  px               91     -0.150878  10 O  pz        
     4     -0.147874   1 C  px              119      0.145640  12 S  s         
    34     -0.143987   3 C  px               61     -0.137068   7 H  s         

 Vector   28  Occ=2.000000D+00  E=-5.152467D-01
              MO Center= -2.8D-01, -7.2D-01,  4.3D-01, r^2= 3.7D+00
   Bfn.  Coefficient  Atom+Function         Bfn.  Coefficient  Atom+Function  
  ----- ------------  ---------------      ----- ------------  ---------------
    19      0.241394   2 C  px              105     -0.236828  11 F  py        
   138     -0.212220  13 Cl s                56     -0.207132   6 H  s         
    74     -0.164957   9 N  px                6     -0.163914   1 C  pz        
   144      0.152560  13 Cl pz               89      0.151588  10 O  px        
   108     -0.146890  11 F  py                4      0.146097   1 C  px        

 Vector   29  Occ=2.000000D+00  E=-4.826506D-01
              MO Center=  7.5D-01,  1.3D-01,  3.0D-01, r^2= 4.6D+00
   Bfn.  Coefficient  Atom+Function         Bfn.  Coefficient  Atom+Function  
  ----- ------------  ---------------      ----- ------------  ---------------
    90      0.264609  10 O  py               88     -0.249799  10 O  s         
    74      0.233804   9 N  px              106      0.224298  11 F  pz        
    91      0.208200  10 O  pz              119      0.175389  12 S  s         
    93      0.158280  10 O  py               75      0.145241   9 N  py        
   109      0.138317  11 F  pz               19      0.136012   2 C  px        

 Vector   30  Occ=2.000000D+00  E=-4.689360D-01
              MO Center= -3.0D-01, -7.2D-01,  5.7D-01, r^2= 4.2D+00
   Bfn.  Coefficient  Atom+Function         Bfn.  Coefficient  Atom+Function  
  ----- ------------  ---------------      ----- ------------  ---------------
   105      0.319614  11 F  py                6     -0.226800   1 C  pz        
    56     -0.212980   6 H  s               108      0.204598  11 F  py        
    91      0.197757  10 O  pz              106      0.181714  11 F  pz        
    21      0.171119   2 C  pz              142      0.158453  13 Cl px        
    88     -0.146475  10 O  s               138      0.126821  13 Cl s         

 Vector   31  Occ=2.000000D+00  E=-4.350096D-01
              MO Center= -1.4D-01, -4.7D-01,  9.7D-01, r^2= 3.2D+00
   Bfn.  Coefficient  Atom+Function         Bfn.  Coefficient  Atom+Function  
  ----- ------------  ---------------      ----- ------------  ---------------
    51      0.324008   5 H  s                 5     -0.277210   1 C  py        
   104     -0.247562  11 F  px                4      0.180373   1 C  px        
   105      0.166436  11 F  py              107     -0.165381  11 F  px        
    35     -0.154616   3 C  py                6      0.148966   1 C  pz        
    56     -0.143572   6 H  s               106     -0.133456  11 F  pz        

 Vector   32  Occ=2.000000D+00  E=-3.982750D-01
              MO Center= -3.8D-01, -3.1D-01,  2.3D-01, r^2= 5.5D+00
   Bfn.  Coefficient  Atom+Function         Bfn.  Coefficient  Atom+Function  
  ----- ------------  ---------------      ----- ------------  ---------------
   106      0.371978  11 F  pz              109      0.252921  11 F  pz        
     3     -0.189331   1 C  s                90     -0.188697  10 O  py        
   119     -0.179553  12 S  s               105      0.155531  11 F  py        
    76      0.153464   9 N  pz                6      0.149077   1 C  pz        
   123      0.148710  12 S  px               21     -0.144812   2 C  pz        

 Vector   33  Occ=2.000000D+00  E=-3.896745D-01
              MO Center= -8.3D-02,  1.2D+00, -1.1D-01, r^2= 5.2D+00
   Bfn.  Coefficient  Atom+Function         Bfn.  Coefficient  Atom+Function  
  ----- ------------  ---------------      ----- ------------  ---------------
   119      0.336314  12 S  s                34      0.285548   3 C  px        
   123     -0.251125  12 S  px               91     -0.187818  10 O  pz        
   124      0.173448  12 S  py               89      0.169443  10 O  px        
   118      0.160457  12 S  s               105      0.158255  11 F  py        
    33     -0.150673   3 C  s               126     -0.136153  12 S  px        

 Vector   34  Occ=2.000000D+00  E=-3.773981D-01
              MO Center= -7.5D-01, -1.0D+00,  8.1D-02, r^2= 3.7D+00
   Bfn.  Coefficient  Atom+Function         Bfn.  Coefficient  Atom+Function  
  ----- ------------  ---------------      ----- ------------  ---------------
   104      0.345532  11 F  px              144     -0.263318  13 Cl pz        
   107      0.239744  11 F  px               61      0.220178   7 H  s         
   105     -0.200091  11 F  py               19     -0.189377   2 C  px        
   147     -0.180369  13 Cl pz              106      0.167057  11 F  pz        
    62      0.136127   7 H  s               108     -0.134715  11 F  py        

 Vector   35  Occ=2.000000D+00  E=-3.601481D-01
              MO Center=  3.2D-01,  6.3D-02,  1.2D-01, r^2= 4.6D+00
   Bfn.  Coefficient  Atom+Function         Bfn.  Coefficient  Atom+Function  
  ----- ------------  ---------------      ----- ------------  ---------------
    90     -0.244671  10 O  py               36      0.238600   3 C  pz        
   105     -0.213231  11 F  py              142      0.210642  13 Cl px        
    93     -0.174716  10 O  py               75      0.173173   9 N  py        
    76      0.168730   9 N  pz               20      0.165143   2 C  py        
   145      0.149246  13 Cl px              108     -0.146542  11 F  py        

 Vector   36  Occ=2.000000D+00  E=-3.512453D-01
              MO Center=  1.5D+00,  3.7D-01,  3.0D-01, r^2= 3.0D+00
   Bfn.  Coefficient  Atom+Function         Bfn.  Coefficient  Atom+Function  
  ----- ------------  ---------------      ----- ------------  ---------------
    90      0.393707  10 O  py               91     -0.360327  10 O  pz        
    93      0.285708  10 O  py               94     -0.250786  10 O  pz        
    89      0.153325  10 O  px               76      0.149259   9 N  pz        
   123      0.145843  12 S  px               35      0.139702   3 C  py        
    34     -0.135605   3 C  px               56     -0.126196   6 H  s         

 Vector   37  Occ=2.000000D+00  E=-3.207781D-01
              MO Center=  2.2D-01, -1.9D+00, -7.7D-01, r^2= 1.6D+00
   Bfn.  Coefficient  Atom+Function         Bfn.  Coefficient  Atom+Function  
  ----- ------------  ---------------      ----- ------------  ---------------
   143      0.484253  13 Cl py              146      0.373089  13 Cl py        
   142      0.303265  13 Cl px              145      0.228829  13 Cl px        
   144     -0.188493  13 Cl pz              147     -0.147520  13 Cl pz        
   106     -0.121718  11 F  pz              104      0.114014  11 F  px        
   109     -0.086344  11 F  pz              107      0.079293  11 F  px        

 Vector   38  Occ=2.000000D+00  E=-3.093000D-01
              MO Center=  1.8D-01, -1.4D+00, -6.5D-01, r^2= 3.0D+00
   Bfn.  Coefficient  Atom+Function         Bfn.  Coefficient  Atom+Function  
  ----- ------------  ---------------      ----- ------------  ---------------
   144      0.430192  13 Cl pz              142      0.346904  13 Cl px        
   147      0.345202  13 Cl pz              145      0.269754  13 Cl px        
    61      0.141359   7 H  s                 3     -0.125748   1 C  s         
    21     -0.111959   2 C  pz                6      0.107381   1 C  pz        
     5      0.093024   1 C  py               62      0.090076   7 H  s         

 Vector   39  Occ=2.000000D+00  E=-2.488620D-01
              MO Center= -2.1D-01,  1.5D+00, -5.5D-02, r^2= 3.7D+00
   Bfn.  Coefficient  Atom+Function         Bfn.  Coefficient  Atom+Function  
  ----- ------------  ---------------      ----- ------------  ---------------
   125      0.380425  12 S  pz              128      0.363977  12 S  pz        
    76     -0.277923   9 N  pz               79     -0.216761   9 N  pz        
    75     -0.206307   9 N  py              124      0.172891  12 S  py        
    78     -0.167672   9 N  py              127      0.158069  12 S  py        
    21     -0.114310   2 C  pz               90      0.112940  10 O  py        

 Vector   40  Occ=2.000000D+00  E=-2.294396D-01
              MO Center= -7.7D-01,  2.2D+00, -4.0D-01, r^2= 2.1D+00
   Bfn.  Coefficient  Atom+Function         Bfn.  Coefficient  Atom+Function  
  ----- ------------  ---------------      ----- ------------  ---------------
   124      0.412957  12 S  py              127      0.414760  12 S  py        
   125     -0.240444  12 S  pz              128     -0.240530  12 S  pz        
   123      0.227757  12 S  px              126      0.210822  12 S  px        
    73      0.198431   9 N  s                66     -0.120122   8 H  s         
    67     -0.108785   8 H  s                76     -0.096765   9 N  pz        

 Vector   41  Occ=0.000000D+00  E=-5.917671D-02
              MO Center=  1.8D-01,  1.7D+00, -1.5D-01, r^2= 2.9D+00
   Bfn.  Coefficient  Atom+Function         Bfn.  Coefficient  Atom+Function  
  ----- ------------  ---------------      ----- ------------  ---------------
    39      0.433516   3 C  pz               36      0.410583   3 C  pz        
   128     -0.382792  12 S  pz               38      0.313881   3 C  py        
    18     -0.301570   2 C  s                35      0.262349   3 C  py        
   125     -0.252078  12 S  pz               79     -0.247404   9 N  pz        
    76     -0.236621   9 N  pz              127     -0.217446  12 S  py        

 Vector   42  Occ=0.000000D+00  E= 2.367721D-03
              MO Center=  1.9D+00,  5.8D-01,  9.0D-01, r^2= 3.6D+00
   Bfn.  Coefficient  Atom+Function         Bfn.  Coefficient  Atom+Function  
  ----- ------------  ---------------      ----- ------------  ---------------
    47      0.911935   4 H  s                88     -0.769046  10 O  s         
    73      0.410435   9 N  s                 3     -0.391915   1 C  s         
    57      0.293672   6 H  s                94     -0.255224  10 O  pz        
    74      0.248295   9 N  px               93     -0.225501  10 O  py        
    90     -0.203761  10 O  py               91     -0.199450  10 O  pz        

 Vector   43  Occ=0.000000D+00  E= 2.825254D-02
              MO Center=  4.0D-01, -8.2D-01,  1.6D-01, r^2= 5.1D+00
   Bfn.  Coefficient  Atom+Function         Bfn.  Coefficient  Atom+Function  
  ----- ------------  ---------------      ----- ------------  ---------------
    18      0.824263   2 C  s                52     -0.728695   5 H  s         
   138     -0.607725  13 Cl s               145      0.423251  13 Cl px        
    22      0.386519   2 C  px               57      0.386521   6 H  s         
   146     -0.382576  13 Cl py               67     -0.365693   8 H  s         
   147     -0.340950  13 Cl pz               47     -0.318092   4 H  s         

 Vector   44  Occ=0.000000D+00  E= 3.780655D-02
              MO Center=  9.8D-01, -1.2D-01,  3.5D-01, r^2= 5.6D+00
   Bfn.  Coefficient  Atom+Function         Bfn.  Coefficient  Atom+Function  
  ----- ------------  ---------------      ----- ------------  ---------------
    18      0.855768   2 C  s                73     -0.648313   9 N  s         
    47      0.587677   4 H  s                67      0.523162   8 H  s         
     3     -0.484476   1 C  s               138     -0.463915  13 Cl s         
    22      0.443184   2 C  px               52      0.399765   5 H  s         
    92     -0.384767  10 O  px                8      0.334353   1 C  py        

 Vector   45  Occ=0.000000D+00  E= 8.367033D-02
              MO Center= -1.2D-01,  6.9D-01,  9.7D-01, r^2= 6.8D+00
   Bfn.  Coefficient  Atom+Function         Bfn.  Coefficient  Atom+Function  
  ----- ------------  ---------------      ----- ------------  ---------------
     3      1.351832   1 C  s                57     -1.313256   6 H  s         
    33      0.943431   3 C  s                67     -0.715571   8 H  s         
    52     -0.682056   5 H  s                62     -0.558829   7 H  s         
     9      0.531873   1 C  pz               47      0.474869   4 H  s         
    18      0.424055   2 C  s               126     -0.348702  12 S  px        

 Vector   46  Occ=0.000000D+00  E= 8.664750D-02
              MO Center=  4.8D-01,  5.2D-01,  1.5D-01, r^2= 7.4D+00
   Bfn.  Coefficient  Atom+Function         Bfn.  Coefficient  Atom+Function  
  ----- ------------  ---------------      ----- ------------  ---------------
    67      1.340950   8 H  s                33     -0.961872   3 C  s         
     3      0.860581   1 C  s                52     -0.764859   5 H  s         
    23     -0.548363   2 C  py               62      0.531332   7 H  s         
    37     -0.490861   3 C  px                8     -0.458539   1 C  py        
    18     -0.409602   2 C  s                57     -0.361875   6 H  s         

 Vector   47  Occ=0.000000D+00  E= 9.518924D-02
              MO Center= -3.2D-01,  6.4D-01,  2.0D-01, r^2= 6.9D+00
   Bfn.  Coefficient  Atom+Function         Bfn.  Coefficient  Atom+Function  
  ----- ------------  ---------------      ----- ------------  ---------------
    33      1.140282   3 C  s                67     -0.791787   8 H  s         
    57      0.714051   6 H  s               126     -0.663358  12 S  px        
     3     -0.654093   1 C  s               119     -0.647027  12 S  s         
    23     -0.515030   2 C  py               38      0.430343   3 C  py        
   103     -0.397533  11 F  s                 9     -0.376489   1 C  pz        

 Vector   48  Occ=0.000000D+00  E= 1.114810D-01
              MO Center= -3.4D-01, -2.9D-01,  3.2D-01, r^2= 5.9D+00
   Bfn.  Coefficient  Atom+Function         Bfn.  Coefficient  Atom+Function  
  ----- ------------  ---------------      ----- ------------  ---------------
    52      1.284016   5 H  s                62     -1.260646   7 H  s         
    18      0.920147   2 C  s                 7     -0.758412   1 C  px        
    33     -0.682734   3 C  s                57     -0.627276   6 H  s         
    73      0.622699   9 N  s                24     -0.456207   2 C  pz        
    22     -0.375372   2 C  px              127     -0.317815  12 S  py        

 Vector   49  Occ=0.000000D+00  E= 1.292190D-01
              MO Center= -5.4D-01,  5.8D-01, -7.6D-02, r^2= 6.7D+00
   Bfn.  Coefficient  Atom+Function         Bfn.  Coefficient  Atom+Function  
  ----- ------------  ---------------      ----- ------------  ---------------
    62      1.458883   7 H  s                67     -0.994999   8 H  s         
    57     -0.967505   6 H  s                18     -0.908914   2 C  s         
    37      0.777476   3 C  px               23     -0.772358   2 C  py        
    52      0.669812   5 H  s               119      0.594894  12 S  s         
   126      0.549459  12 S  px                8      0.539737   1 C  py        

 Vector   50  Occ=0.000000D+00  E= 1.502016D-01
              MO Center= -1.6D-01,  5.7D-01,  3.3D-01, r^2= 6.4D+00
   Bfn.  Coefficient  Atom+Function         Bfn.  Coefficient  Atom+Function  
  ----- ------------  ---------------      ----- ------------  ---------------
    73     -0.960065   9 N  s               119      0.943998  12 S  s         
     7      0.909921   1 C  px               57      0.905845   6 H  s         
    37      0.872981   3 C  px               52     -0.847366   5 H  s         
   126      0.757482  12 S  px               22     -0.729444   2 C  px        
     3      0.723930   1 C  s                67     -0.688279   8 H  s         

 Vector   51  Occ=0.000000D+00  E= 2.098236D-01
              MO Center= -3.0D-01, -4.7D-01,  7.7D-01, r^2= 3.2D+00
   Bfn.  Coefficient  Atom+Function         Bfn.  Coefficient  Atom+Function  
  ----- ------------  ---------------      ----- ------------  ---------------
    18      2.021846   2 C  s                 3     -1.789753   1 C  s         
    24      1.536665   2 C  pz                9      1.292312   1 C  pz        
     8      1.140523   1 C  py                7      0.843541   1 C  px        
    23      0.514677   2 C  py               22      0.506347   2 C  px        
    62      0.433901   7 H  s                21      0.410628   2 C  pz        

 Vector   52  Occ=0.000000D+00  E= 2.162396D-01
              MO Center=  2.7D-02,  5.4D-01,  4.9D-01, r^2= 5.0D+00
   Bfn.  Coefficient  Atom+Function         Bfn.  Coefficient  Atom+Function  
  ----- ------------  ---------------      ----- ------------  ---------------
    73      1.644932   9 N  s                 3     -1.325484   1 C  s         
     9      0.971721   1 C  pz               77     -0.954297   9 N  px        
     8     -0.733142   1 C  py               33     -0.661885   3 C  s         
    67     -0.647207   8 H  s                23      0.630072   2 C  py        
    18      0.547604   2 C  s               119      0.527775  12 S  s         

 Vector   53  Occ=0.000000D+00  E= 2.513428D-01
              MO Center=  2.2D-01,  1.3D+00,  3.0D-02, r^2= 4.9D+00
   Bfn.  Coefficient  Atom+Function         Bfn.  Coefficient  Atom+Function  
  ----- ------------  ---------------      ----- ------------  ---------------
    38     -1.619263   3 C  py               33      1.501297   3 C  s         
    78     -1.260922   9 N  py                3     -1.231153   1 C  s         
    39      1.131593   3 C  pz                7     -1.015412   1 C  px        
    37      0.996103   3 C  px               79      0.949054   9 N  pz        
    73     -0.856234   9 N  s               119      0.688117  12 S  s         

 Vector   54  Occ=0.000000D+00  E= 3.777222D-01
              MO Center= -3.6D-01,  4.1D-01,  1.5D-01, r^2= 5.0D+00
   Bfn.  Coefficient  Atom+Function         Bfn.  Coefficient  Atom+Function  
  ----- ------------  ---------------      ----- ------------  ---------------
   119      0.708269  12 S  s                23      0.657074   2 C  py        
   118     -0.639939  12 S  s                33      0.550757   3 C  s         
    24      0.480347   2 C  pz              117     -0.456947  12 S  s         
    37     -0.383052   3 C  px               51      0.371284   5 H  s         
    20     -0.343164   2 C  py              129     -0.339747  12 S  dxx       

 Vector   55  Occ=0.000000D+00  E= 3.951418D-01
              MO Center= -1.9D-01,  1.1D-01,  4.0D-01, r^2= 5.3D+00
   Bfn.  Coefficient  Atom+Function         Bfn.  Coefficient  Atom+Function  
  ----- ------------  ---------------      ----- ------------  ---------------
     9      0.896422   1 C  pz               18      0.775757   2 C  s         
    24     -0.645121   2 C  pz               33      0.644366   3 C  s         
   138     -0.485036  13 Cl s                22      0.467116   2 C  px        
     8      0.454760   1 C  py               37     -0.455322   3 C  px        
    56     -0.364836   6 H  s                 6     -0.349313   1 C  pz        

 Vector   56  Occ=0.000000D+00  E= 4.175069D-01
              MO Center= -1.4D-01, -2.3D-01,  4.2D-02, r^2= 4.9D+00
   Bfn.  Coefficient  Atom+Function         Bfn.  Coefficient  Atom+Function  
  ----- ------------  ---------------      ----- ------------  ---------------
    22     -0.637744   2 C  px                9      0.603247   1 C  pz        
    19      0.451789   2 C  px               23      0.453121   2 C  py        
     3     -0.425826   1 C  s               137      0.361698  13 Cl s         
    73      0.335507   9 N  s                77     -0.329351   9 N  px        
     8     -0.323903   1 C  py              149     -0.301970  13 Cl dxy       

 Vector   57  Occ=0.000000D+00  E= 4.425995D-01
              MO Center=  2.6D-01,  7.1D-01, -1.2D-01, r^2= 5.3D+00
   Bfn.  Coefficient  Atom+Function         Bfn.  Coefficient  Atom+Function  
  ----- ------------  ---------------      ----- ------------  ---------------
     3      1.426570   1 C  s                 8      0.737944   1 C  py        
     9     -0.704893   1 C  pz               38      0.700776   3 C  py        
    33     -0.644209   3 C  s                23     -0.633108   2 C  py        
    37     -0.556557   3 C  px               66      0.556505   8 H  s         
   119     -0.526337  12 S  s                78      0.476688   9 N  py        

 Vector   58  Occ=0.000000D+00  E= 4.474616D-01
              MO Center=  1.1D-01,  1.1D+00,  6.9D-02, r^2= 5.1D+00
   Bfn.  Coefficient  Atom+Function         Bfn.  Coefficient  Atom+Function  
  ----- ------------  ---------------      ----- ------------  ---------------
    73      0.753816   9 N  s                37     -0.671630   3 C  px        
     7     -0.610255   1 C  px               38      0.584925   3 C  py        
    18     -0.581102   2 C  s                 8     -0.484851   1 C  py        
    52      0.447668   5 H  s                39     -0.402062   3 C  pz        
   118     -0.395711  12 S  s                22     -0.362306   2 C  px        

 Vector   59  Occ=0.000000D+00  E= 4.628809D-01
              MO Center=  2.5D-01,  4.0D-01, -1.8D-01, r^2= 6.5D+00
   Bfn.  Coefficient  Atom+Function         Bfn.  Coefficient  Atom+Function  
  ----- ------------  ---------------      ----- ------------  ---------------
    39      0.469109   3 C  pz               23      0.446449   2 C  py        
   145     -0.448335  13 Cl px               38      0.424423   3 C  py        
     9      0.413105   1 C  pz              147      0.404720  13 Cl pz        
    24      0.382287   2 C  pz               57     -0.367678   6 H  s         
    36     -0.364023   3 C  pz               35     -0.351001   3 C  py        

 Vector   60  Occ=0.000000D+00  E= 4.693134D-01
              MO Center=  2.0D-01,  3.4D-01,  1.2D-02, r^2= 6.5D+00
   Bfn.  Coefficient  Atom+Function         Bfn.  Coefficient  Atom+Function  
  ----- ------------  ---------------      ----- ------------  ---------------
    39     -0.888147   3 C  pz               23      0.834647   2 C  py        
    33     -0.677777   3 C  s                36      0.534440   3 C  pz        
    73      0.456640   9 N  s               147      0.384991  13 Cl pz        
     9      0.348965   1 C  pz               20     -0.347514   2 C  py        
   119     -0.347068  12 S  s                78      0.342136   9 N  py        

 Vector   61  Occ=0.000000D+00  E= 4.856599D-01
              MO Center= -4.7D-01,  9.0D-01, -3.0D-01, r^2= 7.7D+00
   Bfn.  Coefficient  Atom+Function         Bfn.  Coefficient  Atom+Function  
  ----- ------------  ---------------      ----- ------------  ---------------
   126      0.767292  12 S  px              127     -0.670711  12 S  py        
    37      0.665474   3 C  px               33     -0.533741   3 C  s         
   123     -0.490705  12 S  px               22     -0.445682   2 C  px        
   124      0.422932  12 S  py                3      0.409969   1 C  s         
     9     -0.397914   1 C  pz               24     -0.397265   2 C  pz        

 Vector   62  Occ=0.000000D+00  E= 4.991112D-01
              MO Center= -1.2D-01, -1.1D+00, -3.6D-01, r^2= 5.5D+00
   Bfn.  Coefficient  Atom+Function         Bfn.  Coefficient  Atom+Function  
  ----- ------------  ---------------      ----- ------------  ---------------
    22      1.304249   2 C  px              146     -0.966214  13 Cl py        
   138     -0.659317  13 Cl s                24     -0.571143   2 C  pz        
     7     -0.553042   1 C  px              143      0.540628  13 Cl py        
     3     -0.510592   1 C  s               103      0.492261  11 F  s         
   147     -0.490559  13 Cl pz              145      0.470394  13 Cl px        

 Vector   63  Occ=0.000000D+00  E= 5.109157D-01
              MO Center= -2.0D-01,  4.2D-01, -1.1D-02, r^2= 6.3D+00
   Bfn.  Coefficient  Atom+Function         Bfn.  Coefficient  Atom+Function  
  ----- ------------  ---------------      ----- ------------  ---------------
    23      0.748601   2 C  py              138      0.612684  13 Cl s         
    33      0.602277   3 C  s               126     -0.572415  12 S  px        
     7      0.522864   1 C  px               18     -0.515927   2 C  s         
   123      0.490964  12 S  px               22     -0.466357   2 C  px        
    73     -0.461727   9 N  s               147      0.449690  13 Cl pz        

 Vector   64  Occ=0.000000D+00  E= 5.201363D-01
              MO Center= -5.1D-01,  1.1D+00, -2.4D-01, r^2= 5.8D+00
   Bfn.  Coefficient  Atom+Function         Bfn.  Coefficient  Atom+Function  
  ----- ------------  ---------------      ----- ------------  ---------------
     8      0.782568   1 C  py               24      0.774168   2 C  pz        
   128     -0.682231  12 S  pz               18      0.627190   2 C  s         
   125      0.608545  12 S  pz                7      0.549458   1 C  px        
   126     -0.458819  12 S  px               73     -0.449297   9 N  s         
   123      0.382723  12 S  px              145      0.333343  13 Cl px        

 Vector   65  Occ=0.000000D+00  E= 5.393218D-01
              MO Center=  1.1D-01,  8.6D-01,  1.6D-01, r^2= 6.4D+00
   Bfn.  Coefficient  Atom+Function         Bfn.  Coefficient  Atom+Function  
  ----- ------------  ---------------      ----- ------------  ---------------
    39      0.757752   3 C  pz              128     -0.699370  12 S  pz        
   125      0.510359  12 S  pz               46      0.507393   4 H  s         
    47     -0.506991   4 H  s                 8     -0.446148   1 C  py        
    36     -0.432603   3 C  pz               18     -0.420226   2 C  s         
    61     -0.364960   7 H  s               131      0.363443  12 S  dxz       

 Vector   66  Occ=0.000000D+00  E= 5.433193D-01
              MO Center= -4.2D-03, -7.8D-01, -3.4D-01, r^2= 5.4D+00
   Bfn.  Coefficient  Atom+Function         Bfn.  Coefficient  Atom+Function  
  ----- ------------  ---------------      ----- ------------  ---------------
    24      1.427416   2 C  pz                7      1.103796   1 C  px        
    62      0.954481   7 H  s               147     -0.778300  13 Cl pz        
     3     -0.588992   1 C  s               144      0.585235  13 Cl pz        
   119     -0.569524  12 S  s                52     -0.542146   5 H  s         
    18      0.525292   2 C  s                 9      0.498197   1 C  pz        

 Vector   67  Occ=0.000000D+00  E= 5.463076D-01
              MO Center=  1.1D+00, -2.0D-02,  2.6D-01, r^2= 7.2D+00
   Bfn.  Coefficient  Atom+Function         Bfn.  Coefficient  Atom+Function  
  ----- ------------  ---------------      ----- ------------  ---------------
    47      0.896314   4 H  s                46     -0.858403   4 H  s         
    18     -0.791949   2 C  s                 8     -0.678028   1 C  py        
     3      0.664392   1 C  s                 9     -0.609322   1 C  pz        
   145     -0.608321  13 Cl px               24     -0.551335   2 C  pz        
   142      0.525896  13 Cl px               57      0.517706   6 H  s         

 Vector   68  Occ=0.000000D+00  E= 5.585326D-01
              MO Center=  8.5D-02,  6.9D-01,  1.5D-01, r^2= 6.6D+00
   Bfn.  Coefficient  Atom+Function         Bfn.  Coefficient  Atom+Function  
  ----- ------------  ---------------      ----- ------------  ---------------
    24      0.701680   2 C  pz               18      0.560437   2 C  s         
     8      0.486006   1 C  py               57     -0.486971   6 H  s         
   126      0.479294  12 S  px                3     -0.468861   1 C  s         
    47      0.445762   4 H  s                 9      0.424226   1 C  pz        
    46     -0.413028   4 H  s                 7     -0.399923   1 C  px        

 Vector   69  Occ=0.000000D+00  E= 5.753938D-01
              MO Center= -9.0D-02, -9.5D-01, -4.6D-03, r^2= 5.2D+00
   Bfn.  Coefficient  Atom+Function         Bfn.  Coefficient  Atom+Function  
  ----- ------------  ---------------      ----- ------------  ---------------
    24      1.042162   2 C  pz               18      0.960836   2 C  s         
     3     -0.911289   1 C  s               138      0.897895  13 Cl s         
   145     -0.625795  13 Cl px               23      0.611270   2 C  py        
     7      0.600973   1 C  px                9      0.505834   1 C  pz        
     8      0.454609   1 C  py              137     -0.422389  13 Cl s         

 Vector   70  Occ=0.000000D+00  E= 5.857970D-01
              MO Center= -3.7D-01,  2.8D-01, -1.8D-02, r^2= 6.2D+00
   Bfn.  Coefficient  Atom+Function         Bfn.  Coefficient  Atom+Function  
  ----- ------------  ---------------      ----- ------------  ---------------
     7      1.472143   1 C  px               57      1.104374   6 H  s         
    52     -0.992739   5 H  s                 8     -0.871024   1 C  py        
    73     -0.559378   9 N  s                78      0.536135   9 N  py        
    22     -0.520918   2 C  px               38     -0.476784   3 C  py        
    33     -0.474326   3 C  s               130     -0.461250  12 S  dxy       

 Vector   71  Occ=0.000000D+00  E= 5.991199D-01
              MO Center= -3.7D-01,  3.0D-01, -5.7D-02, r^2= 6.2D+00
   Bfn.  Coefficient  Atom+Function         Bfn.  Coefficient  Atom+Function  
  ----- ------------  ---------------      ----- ------------  ---------------
   133      0.906761  12 S  dyz              57     -0.695308   6 H  s         
     9      0.601604   1 C  pz               62      0.496384   7 H  s         
    18      0.483032   2 C  s                23     -0.476268   2 C  py        
    33      0.466415   3 C  s                52     -0.448413   5 H  s         
   144     -0.380238  13 Cl pz               24      0.358801   2 C  pz        

 Vector   72  Occ=0.000000D+00  E= 6.057797D-01
              MO Center=  2.7D-01,  5.6D-01,  1.6D-01, r^2= 6.0D+00
   Bfn.  Coefficient  Atom+Function         Bfn.  Coefficient  Atom+Function  
  ----- ------------  ---------------      ----- ------------  ---------------
     8      0.998809   1 C  py               73     -0.814463   9 N  s         
    52      0.790026   5 H  s                57     -0.761940   6 H  s         
    38     -0.720518   3 C  py               67      0.515645   8 H  s         
    77      0.484540   9 N  px                7     -0.418813   1 C  px        
    66     -0.416002   8 H  s                47     -0.399178   4 H  s         

 Vector   73  Occ=0.000000D+00  E= 6.349999D-01
              MO Center=  3.8D-01,  9.7D-01, -1.4D-01, r^2= 6.2D+00
   Bfn.  Coefficient  Atom+Function         Bfn.  Coefficient  Atom+Function  
  ----- ------------  ---------------      ----- ------------  ---------------
    37      2.086594   3 C  px              119      2.086153  12 S  s         
    67     -1.513889   8 H  s                52      0.924601   5 H  s         
   126      0.868124  12 S  px              118     -0.653814  12 S  s         
   138     -0.620289  13 Cl s                18     -0.555940   2 C  s         
    34     -0.552223   3 C  px                7     -0.541052   1 C  px        

 Vector   74  Occ=0.000000D+00  E= 6.473219D-01
              MO Center= -2.8D-01,  1.7D+00, -2.7D-01, r^2= 4.5D+00
   Bfn.  Coefficient  Atom+Function         Bfn.  Coefficient  Atom+Function  
  ----- ------------  ---------------      ----- ------------  ---------------
    37      1.107062   3 C  px              119      1.032141  12 S  s         
   131      0.853329  12 S  dxz              67     -0.730510   8 H  s         
    39     -0.643511   3 C  pz               77     -0.619922   9 N  px        
   126      0.580760  12 S  px              130      0.561753  12 S  dxy       
    62      0.479446   7 H  s               128      0.462273  12 S  pz        

 Vector   75  Occ=0.000000D+00  E= 6.626720D-01
              MO Center= -3.6D-01,  8.6D-01, -1.3D-01, r^2= 5.6D+00
   Bfn.  Coefficient  Atom+Function         Bfn.  Coefficient  Atom+Function  
  ----- ------------  ---------------      ----- ------------  ---------------
    37      1.099972   3 C  px               18     -0.973551   2 C  s         
    62      0.913749   7 H  s                67     -0.814128   8 H  s         
   131     -0.748611  12 S  dxz              57      0.705306   6 H  s         
    23     -0.681780   2 C  py              138     -0.660462  13 Cl s         
   119      0.655360  12 S  s                22      0.602761   2 C  px        

 Vector   76  Occ=0.000000D+00  E= 6.801780D-01
              MO Center= -2.3D-01, -1.0D-01, -3.8D-01, r^2= 6.3D+00
   Bfn.  Coefficient  Atom+Function         Bfn.  Coefficient  Atom+Function  
  ----- ------------  ---------------      ----- ------------  ---------------
    24      1.032208   2 C  pz               62      1.016718   7 H  s         
     9      0.972631   1 C  pz              119     -0.893908  12 S  s         
    57     -0.673329   6 H  s                18      0.633005   2 C  s         
   133     -0.565412  12 S  dyz               3     -0.553829   1 C  s         
   152     -0.551089  13 Cl dyz              37     -0.529452   3 C  px        

 Vector   77  Occ=0.000000D+00  E= 6.899031D-01
              MO Center=  1.4D-01,  1.3D-01, -2.9D-01, r^2= 6.5D+00
   Bfn.  Coefficient  Atom+Function         Bfn.  Coefficient  Atom+Function  
  ----- ------------  ---------------      ----- ------------  ---------------
   119      1.493596  12 S  s                37      1.342722   3 C  px        
    67     -1.201636   8 H  s               138      1.066501  13 Cl s         
    18      0.819535   2 C  s                 9      0.808216   1 C  pz        
    23      0.786315   2 C  py               33      0.732087   3 C  s         
    62     -0.733857   7 H  s               149      0.669799  13 Cl dxy       

 Vector   78  Occ=0.000000D+00  E= 7.130169D-01
              MO Center= -1.6D-01, -4.9D-01,  9.7D-02, r^2= 5.3D+00
   Bfn.  Coefficient  Atom+Function         Bfn.  Coefficient  Atom+Function  
  ----- ------------  ---------------      ----- ------------  ---------------
     3      1.525836   1 C  s               138     -1.084757  13 Cl s         
    57     -0.864702   6 H  s               152      0.866245  13 Cl dyz       
[...]
 
 P.Frequency     1086.18     1131.92     1229.16     1311.62     1321.05     1364.04
 
           1     0.04639    -0.08805     0.06342    -0.00188     0.04849     0.02149
           2    -0.02550    -0.03443    -0.01279    -0.03456     0.02738     0.00387
           3     0.08828    -0.01045    -0.00238    -0.00432     0.02978    -0.01700
           4    -0.13457     0.04912     0.02343    -0.07129     0.03001     0.03013
           5    -0.12260     0.01941     0.05276     0.05638     0.05778     0.03225
           6    -0.01593     0.06788     0.04180     0.02027     0.02377     0.00163
           7    -0.04206    -0.02143    -0.02693     0.01714    -0.00520     0.09563
           8     0.02933     0.01052     0.06255    -0.02876    -0.01075    -0.01284
           9    -0.01238    -0.00304    -0.03173     0.01372     0.00504    -0.00766
          10     0.00716     0.09596    -0.09781     0.07803     0.05113    -0.20726
          11    -0.02014    -0.05096     0.05296    -0.04419    -0.02737     0.09215
          12    -0.00285    -0.04975     0.03348    -0.02196    -0.01563     0.06268
          13    -0.02749    -0.21115    -0.35707     0.26633    -0.05834     0.10212
          14     0.04831    -0.29649    -0.33017     0.34059    -0.03582     0.11051
          15     0.21497    -0.14903     0.02595     0.12789     0.05021     0.01928
          16     0.09568     0.00507     0.22902    -0.17747    -0.44709     0.05537
          17     0.13529    -0.01417     0.23739    -0.20425    -0.46785     0.04961
          18    -0.02156     0.09083    -0.04611    -0.05341    -0.11833    -0.01796
          19    -0.16832     0.12312     0.14825     0.50781    -0.46526    -0.19071
          20    -0.23288    -0.08465    -0.41528    -0.15069    -0.42792    -0.17746
          21    -0.08006    -0.04851    -0.37792    -0.51525    -0.00846    -0.00674
          22    -0.12764    -0.23728     0.12090    -0.04757     0.06085    -0.32848
          23     0.16656     0.30238    -0.12677     0.05276    -0.08642     0.54573
          24    -0.03868    -0.13722     0.06517    -0.02910     0.05838    -0.25927
          25     0.03694     0.14502    -0.06212     0.01511     0.02434    -0.06749
          26     0.01020    -0.01874    -0.00775     0.00574     0.00175    -0.07818
          27    -0.01305    -0.02767     0.02053    -0.00845    -0.02865     0.06643
          28    -0.02449    -0.07632     0.02066    -0.00439    -0.00565     0.01241
          29     0.00058     0.02767    -0.01337     0.00522     0.00384     0.00077
          30     0.00826     0.01579    -0.00557     0.00405     0.00201    -0.01889
          31     0.06299    -0.00366    -0.00981     0.00646    -0.00913    -0.00707
          32     0.05818    -0.00310    -0.01419    -0.01840     0.00398    -0.00117
          33    -0.04521    -0.00146     0.00237     0.01495    -0.01655    -0.00323
          34     0.01741     0.00986     0.00555    -0.00332    -0.00202    -0.00911
          35    -0.00514     0.00181    -0.00640     0.00296     0.00088     0.00707
          36     0.00008    -0.00262     0.00224    -0.00086    -0.00005    -0.00260
          37    -0.00268    -0.00302    -0.00612    -0.00337    -0.00076    -0.00061
          38     0.00670     0.00057     0.00437     0.00515    -0.00083    -0.00075
          39     0.00329    -0.00315    -0.00302    -0.00181     0.00045    -0.00011

                   31          32          33          34          35          36
 
 P.Frequency     1379.11     1396.71     1411.67     1497.67     3067.04     3115.59
 
           1    -0.00457     0.08268    -0.03014     0.02336     0.02427     0.00098
           2    -0.00414     0.10743    -0.03725    -0.01522    -0.01106     0.00040
           3    -0.03364    -0.02671    -0.06649    -0.00295    -0.06101    -0.00164
           4     0.02451    -0.05395     0.02808     0.00185     0.00230     0.00082
           5     0.01838    -0.05466     0.02063    -0.00564    -0.00111    -0.00090
           6    -0.00861    -0.00479    -0.00932     0.00385     0.00087     0.00140
           7    -0.02693     0.00966    -0.01112     0.07351     0.00190    -0.06543
           8     0.07295     0.03190    -0.00154    -0.12867     0.00008    -0.03702
           9    -0.03713    -0.02137     0.00348     0.05846    -0.00040     0.03140
          10     0.67961     0.01186    -0.23901     0.30692     0.00232     0.00204
          11    -0.31221     0.00467     0.11419    -0.13443     0.00088    -0.00205
          12    -0.20100    -0.00798     0.06627    -0.08692     0.00118     0.00080
          13     0.05288    -0.39751    -0.22581    -0.28471     0.25955     0.00529
          14     0.19386    -0.15994     0.35479    -0.13164    -0.31412    -0.00699
          15     0.09932     0.09604     0.44082     0.11787     0.34294     0.00706
          16     0.14190    -0.17715     0.26993     0.09773    -0.55853    -0.01213
          17     0.04074    -0.39989    -0.17055    -0.00200     0.44454     0.00965
          18     0.13447     0.18953     0.52590     0.08651     0.38073     0.00730
          19    -0.12111     0.28491    -0.12724     0.00465    -0.01310    -0.01016
          20    -0.06416     0.28243    -0.08831    -0.01241     0.01333     0.01113
          21     0.02553     0.01716     0.01256    -0.00046    -0.01788    -0.01532
          22     0.02055    -0.04336     0.05723    -0.14516    -0.01741     0.77473
          23    -0.00346     0.10829    -0.08127     0.15227    -0.01029     0.42317
          24    -0.02263    -0.04438     0.04912    -0.06200     0.00644    -0.36450
          25    -0.04689    -0.01837     0.04385    -0.07579     0.00040    -0.00211
          26    -0.08258    -0.06820     0.01610     0.12589     0.00097     0.00071
          27     0.01469     0.02322    -0.00386    -0.07187    -0.00026    -0.00006
          28    -0.00800    -0.00065    -0.00513     0.01133    -0.00036     0.00042
          29     0.02487     0.00519    -0.00631    -0.00123    -0.00026     0.00021
          30     0.04116    -0.00219    -0.01246     0.01904     0.00002    -0.00013
          31    -0.00396     0.00689    -0.00412    -0.00128    -0.00035    -0.00002
          32    -0.00015    -0.00198     0.00016    -0.00029    -0.00008     0.00002
          33     0.00016     0.00331     0.00037    -0.00094     0.00029    -0.00003
          34     0.00513    -0.00120    -0.00042    -0.00792    -0.00011     0.00064
          35    -0.00343     0.00022    -0.00045     0.00554    -0.00006    -0.00005
          36     0.00142     0.00022     0.00021    -0.00139     0.00007    -0.00008
          37    -0.00001     0.00109    -0.00043    -0.00018    -0.00005     0.00001
          38    -0.00082     0.00149    -0.00071     0.00025     0.00011    -0.00000
          39     0.00012     0.00063     0.00012    -0.00011     0.00009    -0.00001

                   37          38          39
 
 P.Frequency     3128.96     3142.61     3657.84
 
           1    -0.03666    -0.04850     0.00006
           2     0.03607     0.05022    -0.00051
           3    -0.01312    -0.01953    -0.00000
           4     0.03094    -0.02357    -0.00006
           5    -0.03311     0.02608    -0.00003
           6     0.04831    -0.03451    -0.00008
           7     0.00112    -0.00130     0.00014
           8     0.00042    -0.00074     0.00010
           9    -0.00052     0.00035    -0.00034
          10     0.00265     0.00340     0.41395
          11     0.00082     0.00080     0.24200
          12     0.00028     0.00027     0.83788
          13     0.21991     0.31786    -0.00238
          14    -0.26719    -0.37698     0.00144
          15     0.29506     0.42792    -0.00112
          16     0.21957     0.27341     0.00185
          17    -0.17344    -0.21968     0.00016
          18    -0.15441    -0.19644    -0.00012
          19    -0.36027     0.26252     0.00004
          20     0.40429    -0.29059    -0.00020
          21    -0.55130     0.39916     0.00013
          22    -0.01403     0.00976    -0.00085
          23    -0.00773     0.00475    -0.00010
          24     0.00642    -0.00413    -0.00045
          25    -0.00051    -0.00099     0.00078
          26     0.00014    -0.00028     0.00018
          27     0.00021     0.00001     0.00100
          28     0.00025     0.00034    -0.02693
          29    -0.00003    -0.00009    -0.01510
          30     0.00015     0.00025    -0.05331
          31    -0.00039     0.00035     0.00003
          32     0.00005    -0.00042     0.00002
          33    -0.00031     0.00028    -0.00001
          34    -0.00003     0.00009     0.00006
          35    -0.00006     0.00012    -0.00004
          36    -0.00002    -0.00000     0.00002
          37    -0.00005     0.00016    -0.00001
          38     0.00007    -0.00025     0.00000
          39    -0.00022     0.00009     0.00001



 ----------------------------------------------------------------------------
 Normal Eigenvalue ||    Projected Derivative Dipole Moments (debye/angs)
  Mode   [cm**-1]  ||      [d/dqX]             [d/dqY]           [d/dqZ]
 ------ ---------- || ------------------ ------------------ -----------------
    1        0.000 ||       0.016              -0.002            -0.018
    2        0.000 ||      -0.039               0.081             0.048
    3        0.000 ||       0.005              -0.069            -0.008
    4        0.000 ||       0.026              -0.051            -0.032
    5        0.000 ||      -0.048               0.063             0.057
    6        0.000 ||       0.134               0.062            -0.152
    7       16.789 ||       0.157              -0.020            -0.157
    8       56.739 ||      -0.190              -0.205            -0.116
    9      107.959 ||      -0.151               0.087             0.050
   10      181.369 ||       0.052              -0.398             0.179
   11      226.068 ||       0.115               0.204            -0.097
   12      270.283 ||      -0.012              -0.184             0.355
   13      339.664 ||      -0.037              -0.035             0.001
   14      350.858 ||       0.387               1.460            -0.517
   15      397.550 ||      -0.211              -0.287            -0.400
   16      429.456 ||       0.051               0.272             0.429
   17      501.689 ||       0.049               0.336            -0.150
   18      512.621 ||       0.116               0.135            -0.176
   19      672.909 ||      -0.703               0.639             0.770
   20      859.659 ||      -0.383              -0.413            -0.017
   21      902.755 ||      -0.064               0.391             0.478
   22      963.913 ||      -0.138               0.447             0.303
   23     1026.156 ||       1.240              -1.274             0.029
   24     1067.068 ||       0.792               0.388            -0.923
   25     1086.180 ||      -1.180              -0.554             0.372
   26     1131.916 ||       0.459               0.147             0.000
   27     1229.163 ||      -0.821               1.069            -0.069
   28     1311.623 ||      -0.177               0.249             0.434
   29     1321.048 ||       0.096               0.226             0.347
   30     1364.041 ||       0.160               0.537            -0.311
   31     1379.108 ||       0.415               0.642            -0.269
   32     1396.706 ||      -0.501               0.681             0.097
   33     1411.675 ||      -0.269              -0.163             0.452
   34     1497.671 ||       1.468              -1.621             0.670
   35     3067.037 ||       0.020               0.284            -0.328
   36     3115.587 ||      -0.415              -0.024             0.030
   37     3128.958 ||       0.032              -0.094             0.029
   38     3142.613 ||      -0.116               0.178            -0.202
   39     3657.844 ||       0.627               0.102             0.725
 ----------------------------------------------------------------------------



  
  
 ----------------------------------------------------------------------------
 Normal Eigenvalue ||           Projected Infra Red Intensities
  Mode   [cm**-1]  || [atomic units] [(debye/angs)**2] [(KM/mol)] [arbitrary]
 ------ ---------- || -------------- ----------------- ---------- -----------
    1        0.000 ||    0.000025           0.001         0.024       0.009
    2        0.000 ||    0.000450           0.010         0.439       0.166
    3        0.000 ||    0.000211           0.005         0.206       0.078
    4        0.000 ||    0.000189           0.004         0.184       0.070
    5        0.000 ||    0.000407           0.009         0.397       0.151
    6        0.000 ||    0.001951           0.045         1.902       0.721
    7       16.789 ||    0.002156           0.050         2.102       0.797
    8       56.739 ||    0.003979           0.092         3.878       1.471
    9      107.959 ||    0.001420           0.033         1.384       0.525
   10      181.369 ||    0.008352           0.193         8.142       3.088
   11      226.068 ||    0.002791           0.064         2.721       1.032
   12      270.283 ||    0.006935           0.160         6.761       2.564
   13      339.664 ||    0.000114           0.003         0.111       0.042
   14      350.858 ||    0.110470           2.549       107.692      40.840
   15      397.550 ||    0.012443           0.287        12.130       4.600
   16      429.456 ||    0.011284           0.260        11.000       4.172
   17      501.689 ||    0.005972           0.138         5.822       2.208
   18      512.621 ||    0.002717           0.063         2.648       1.004
   19      672.909 ||    0.064855           1.496        63.224      23.977
   20      859.659 ||    0.013746           0.317        13.401       5.082
   21      902.755 ||    0.016719           0.386        16.298       6.181
   22      963.913 ||    0.013442           0.310        13.104       4.969
   23     1026.156 ||    0.137089           3.163       133.642      50.681
   24     1067.068 ||    0.070685           1.631        68.907      26.132
   25     1086.180 ||    0.079700           1.839        77.695      29.465
   26     1131.916 ||    0.010066           0.232         9.813       3.721
   27     1229.163 ||    0.078954           1.822        76.969      29.189
   28     1311.623 ||    0.012202           0.282        11.895       4.511
   29     1321.048 ||    0.007848           0.181         7.651       2.902
   30     1364.041 ||    0.017801           0.411        17.353       6.581
   31     1379.108 ||    0.028477           0.657        27.761      10.528
   32     1396.706 ||    0.031403           0.725        30.614      11.610
   33     1411.675 ||    0.013151           0.303        12.820       4.862
   34     1497.671 ||    0.226774           5.232       221.070      83.837
   35     3067.037 ||    0.008179           0.189         7.973       3.024
   36     3115.587 ||    0.007546           0.174         7.356       2.790
   37     3128.958 ||    0.000460           0.011         0.448       0.170
   38     3142.613 ||    0.003719           0.086         3.625       1.375
   39     3657.844 ||    0.040238           0.928        39.226      14.876
 ----------------------------------------------------------------------------



 vib:animation  F

 Task  times  cpu:      457.5s     wall:      457.5s


                                NWChem Input Module
                                -------------------


 Summary of allocated global arrays
-----------------------------------
  No active global arrays


MA_summarize_allocated_blocks: starting scan ...
MA_summarize_allocated_blocks: scan completed: 0 heap blocks, 0 stack blocks
MA usage statistics:

	allocation statistics:
					      heap	     stack
					      ----	     -----
	current number of blocks	         0	         0
	maximum number of blocks	        25	        54
	current total bytes		         0	         0
	maximum total bytes		 576946960	  84756568
	maximum total K-bytes		    576947	     84757
	maximum total M-bytes		       577	        85


                                     CITATION
                                     --------
                Please cite the following reference when publishing
                           results obtained with NWChem:

          E. Apra, E. J. Bylaska, W. A. de Jong, N. Govind, K. Kowalski,
       T. P. Straatsma, M. Valiev, H. J. J. van Dam, Y. Alexeev, J. Anchell,
       V. Anisimov, F. W. Aquino, R. Atta-Fynn, J. Autschbach, N. P. Bauman,
     J. C. Becca, D. E. Bernholdt, K. Bhaskaran-Nair, S. Bogatko, P. Borowski,
         J. Boschen, J. Brabec, A. Bruner, E. Cauet, Y. Chen, G. N. Chuev,
      C. J. Cramer, J. Daily, M. J. O. Deegan, T. H. Dunning Jr., M. Dupuis,
   K. G. Dyall, G. I. Fann, S. A. Fischer, A. Fonari, H. Fruchtl, L. Gagliardi,
      J. Garza, N. Gawande, S. Ghosh, K. Glaesemann, A. W. Gotz, J. Hammond,
       V. Helms, E. D. Hermes, K. Hirao, S. Hirata, M. Jacquelin, L. Jensen,
   B. G. Johnson, H. Jonsson, R. A. Kendall, M. Klemm, R. Kobayashi, V. Konkov,
      S. Krishnamoorthy, M. Krishnan, Z. Lin, R. D. Lins, R. J. Littlefield,
      A. J. Logsdail, K. Lopata, W. Ma, A. V. Marenich, J. Martin del Campo,
   D. Mejia-Rodriguez, J. E. Moore, J. M. Mullin, T. Nakajima, D. R. Nascimento,
    J. A. Nichols, P. J. Nichols, J. Nieplocha, A. Otero-de-la-Roza, B. Palmer,
    A. Panyala, T. Pirojsirikul, B. Peng, R. Peverati, J. Pittner, L. Pollack,
   R. M. Richard, P. Sadayappan, G. C. Schatz, W. A. Shelton, D. W. Silverstein,
   D. M. A. Smith, T. A. Soares, D. Song, M. Swart, H. L. Taylor, G. S. Thomas,
            V. Tipparaju, D. G. Truhlar, K. Tsemekhman, T. Van Voorhis,
      A. Vazquez-Mayagoitia, P. Verma, O. Villa, A. Vishnu, K. D. Vogiatzis,
        D. Wang, J. H. Weare, M. J. Williamson, T. L. Windus, K. Wolinski,
        A. T. Wong, Q. Wu, C. Yang, Q. Yu, M. Zacharias, Z. Zhang, Y. Zhao,
                                and R. J. Harrison
                        "NWChem: Past, present, and future
                         J. Chem. Phys. 152, 184102 (2020)
                               doi:10.1063/5.0004997

                                      AUTHORS
                                      -------
  E. Apra, E. J. Bylaska, N. Govind, K. Kowalski, M. Valiev, D. Mejia-Rodriguez,
       A. Kunitsa, N. P. Bauman, A. Panyala, W. A. de Jong, T. P. Straatsma,
   H. J. J. van Dam, D. Wang, T. L. Windus, J. Hammond, J. Autschbach, A. Woods,
    K. Bhaskaran-Nair, J. Brabec, K. Lopata, S. A. Fischer, S. Krishnamoorthy,
     M. Jacquelin, W. Ma, M. Klemm, O. Villa, Y. Chen, V. Anisimov, F. Aquino,
     S. Hirata, M. T. Hackler, E. Hermes, L. Jensen, J. E. Moore, J. C. Becca,
      V. Konjkov, T. Risthaus, M. Malagoli, A. Marenich, A. Otero-de-la-Roza,
        J. Mullin, P. Nichols, R. Peverati, J. Pittner, Y. Zhao, P.-D. Fan,
        A. Fonari, M. J. Williamson, R. J. Harrison, J. R. Rehr, M. Dupuis,
     D. Silverstein, D. M. A. Smith, J. Nieplocha, V. Tipparaju, M. Krishnan,
     B. E. Van Kuiken, A. Vazquez-Mayagoitia, M. Swart, Q. Wu, T. Van Voorhis,
     A. A. Auer, M. Nooijen, L. D. Crosby, E. Brown, G. Cisneros, G. I. Fann,
   H. Fruchtl, J. Garza, K. Hirao, R. A. Kendall, J. A. Nichols, K. Tsemekhman,
    K. Wolinski, J. Anchell, D. E. Bernholdt, P. Borowski, T. Clark, D. Clerc,
   H. Dachsel, M. J. O. Deegan, K. Dyall, D. Elwood, E. Glendening, M. Gutowski,
   A. C. Hess, J. Jaffe, B. G. Johnson, J. Ju, R. Kobayashi, R. Kutteh, Z. Lin,
   R. Littlefield, X. Long, B. Meng, T. Nakajima, S. Niu, L. Pollack, M. Rosing,
   K. Glaesemann, G. Sandrone, M. Stave, H. Taylor, G. Thomas, J. H. van Lenthe,
                               A. T. Wong, Z. Zhang.

 Total times  cpu:      962.7s     wall:      962.7s
