 argument  1 = xyz49.in
                                         
                                         


             Northwest Computational Chemistry Package (NWChem) 7.2.3
             --------------------------------------------------------


                    Environmental Molecular Sciences Laboratory
                       Pacific Northwest National Laboratory
                                Richland, WA 99352

                              Copyright (c) 1994-2022
                       Pacific Northwest National Laboratory
                            Battelle Memorial Institute

             NWChem is an open-source computational chemistry package
                        distributed under the terms of the
                      Educational Community License (ECL) 2.0
             A copy of the license is included with this distribution
                              in the LICENSE.TXT file

                                  ACKNOWLEDGMENT
                                  --------------

            This software and its documentation were developed at the
            EMSL at Pacific Northwest National Laboratory, a multiprogram
            national laboratory, operated for the U.S. Department of Energy
            by Battelle under Contract Number DE-AC05-76RL01830. Support
            for this work was provided by the Department of Energy Office
            of Biological and Environmental Research, Office of Basic
            Energy Sciences, and the Office of Advanced Scientific Computing.


           Job information
           ---------------

    hostname        = gpu001
    program         = /home/rrichard/nwchem/bin/LINUX64/nwchem
    date            = Sat Jul 12 02:25:51 2025

    compiled        = Mon_Jul_07_13:04:19_2025
    source          = /home/rrichard/nwchem
    nwchem branch   = 7.2.3
    nwchem revision = v7.2.0-beta1-1473-g5687662257
    ga revision     = 5.9.2
    use scalapack   = T
    input           = xyz49.in
    prefix          = xyz49.
    data base       = ./xyz49.db
    status          = startup
    nproc           =        2
    time left       =     -1s



           Memory information
           ------------------

    heap     =    431126723 doubles =     3289.2 Mbytes
    stack    =    431126727 doubles =     3289.2 Mbytes
    global   =    246358129 doubles =     1879.6 Mbytes (distinct from heap & stack)
    total    =   1108611579 doubles =     8458.0 Mbytes
    verify   = yes
    hardfail = no 


           Directory information
           ---------------------

  0 permanent = .
  0 scratch   = .




                                NWChem Input Module
                                -------------------



 Scaling coordinates for geometry "geometry" by  1.889725989
 (inverse scale =  0.529177249)

 C1  symmetry detected

          ------
          auto-z
          ------
  no constraints, skipping    0.0000000000000000     
  no constraints, skipping    0.0000000000000000     


                             Geometry "geometry" -> ""
                             -------------------------

 Output coordinates in angstroms (scale by  1.889725989 to convert to a.u.)

  No.       Tag          Charge          X              Y              Z
 ---- ---------------- ---------- -------------- -------------- --------------
    1 C                    6.0000    -0.40637685     3.60140037    -0.09115820
    2 C                    6.0000     0.42505194    -0.11086129     0.63574293
    3 C                    6.0000     1.85832774    -0.22624381     0.02486175
    4 C                    6.0000     0.20602799    -1.48843304     0.09721112
    5 H                    1.0000     0.18757425     4.46317608     0.06242346
    6 H                    1.0000    -1.50161533     3.84004621    -0.35926952
    7 H                    1.0000     0.46309383    -0.00323663     1.74592097
    8 H                    1.0000     2.13738821     0.52513660    -0.74769745
    9 H                    1.0000     2.65235533    -0.21372133     0.71977316
   10 H                    1.0000     1.78288927    -2.31906364    -0.95274093
   11 N                    7.0000     0.21394900     2.47799950     0.05782776
   12 N                    7.0000     1.42568598    -1.56127764    -0.39572844
   13 S                   16.0000    -0.78679804     1.05075526    -0.13314867
   14 S                   16.0000    -1.06928416    -2.51104049     0.00170801

      Atomic Mass 
      ----------- 

      C                 12.000000
      H                  1.007825
      N                 14.003070
      S                 31.972070


 Effective nuclear repulsion energy (a.u.)     493.9151094255

            Nuclear Dipole moment (a.u.) 
            ----------------------------
        X                 Y               Z
 ---------------- ---------------- ----------------
     0.0000000000     0.0000000000     0.0000000000



                                Z-matrix (autoz)
                                -------- 

 Units are Angstrom for bonds and degrees for angles

      Type          Name      I     J     K     L     M      Value
      ----------- --------  ----- ----- ----- ----- ----- ----------
    1 Stretch                  1     5                       1.05784
    2 Stretch                  1     6                       1.15255
    3 Stretch                  1    11                       1.29191
    4 Stretch                  2     3                       1.56230
    5 Stretch                  2     4                       1.49522
    6 Stretch                  2     7                       1.11603
    7 Stretch                  2    13                       1.84638
    8 Stretch                  3     8                       1.11324
    9 Stretch                  3     9                       1.05524
   10 Stretch                  3    12                       1.46506
   11 Stretch                  4    12                       1.31752
   12 Stretch                  4    14                       1.63746
   13 Stretch                 10    12                       1.00603
   14 Stretch                 11    13                       1.75357
   15 Bend                     1    11    13               114.90810
   16 Bend                     2     3     8               116.83869
   17 Bend                     2     3     9               115.59113
   18 Bend                     2     3    12                84.75776
   19 Bend                     2     4    12                92.87119
   20 Bend                     2     4    14               135.27253
   21 Bend                     2    13    11                95.28653
   22 Bend                     3     2     4                85.72814
   23 Bend                     3     2     7               111.39618
   24 Bend                     3     2    13               119.06280
   25 Bend                     3    12     4                96.63714
   26 Bend                     3    12    10               137.77325
   27 Bend                     4     2     7               116.87976
   28 Bend                     4     2    13               109.48140
   29 Bend                     4    12    10               125.27402
   30 Bend                     5     1     6               113.49355
   31 Bend                     5     1    11               114.96444
   32 Bend                     6     1    11               131.54139
   33 Bend                     7     2    13               112.08301
   34 Bend                     8     3     9               105.09220
   35 Bend                     8     3    12               119.33064
   36 Bend                     9     3    12               114.96550
   37 Bend                    12     4    14               131.65442
   38 Torsion                  1    11    13     2        -164.77743
   39 Torsion                  2     3    12     4           0.59223
   40 Torsion                  2     3    12    10         173.94468
   41 Torsion                  2     4    12     3          -0.61698
   42 Torsion                  2     4    12    10        -175.14864
   43 Torsion                  3     2     4    12           0.57630
   44 Torsion                  3     2     4    14        -174.46719
   45 Torsion                  3     2    13    11         -57.65792
   46 Torsion                  3    12     4    14         174.71529
   47 Torsion                  4     2     3     8         119.80269
   48 Torsion                  4     2     3     9        -115.73411
   49 Torsion                  4     2     3    12          -0.51979
   50 Torsion                  4     2    13    11        -153.75431
   51 Torsion                  4    12     3     8        -117.34406
   52 Torsion                  4    12     3     9         116.42530
   53 Torsion                  5     1    11    13         177.63516
   54 Torsion                  6     1    11    13          -2.05689
   55 Torsion                  7     2     3     8        -122.96036
   56 Torsion                  7     2     3     9           1.50284
   57 Torsion                  7     2     3    12         116.71716
   58 Torsion                  7     2     4    12        -111.28009
   59 Torsion                  7     2     4    14          73.67641
   60 Torsion                  7     2    13    11          74.86460
   61 Torsion                  8     3     2    13           9.85924
   62 Torsion                  8     3    12    10          56.00839
   63 Torsion                  9     3     2    13         134.32244
   64 Torsion                  9     3    12    10         -70.22225
   65 Torsion                 10    12     4    14           0.18363
   66 Torsion                 12     3     2    13        -110.46323
   67 Torsion                 12     4     2    13         119.93519
   68 Torsion                 13     2     4    14         -55.10831


            XYZ format geometry
            -------------------
    14
 geometry
 C                    -0.40637685     3.60140037    -0.09115820
 C                     0.42505194    -0.11086129     0.63574293
 C                     1.85832774    -0.22624381     0.02486175
 C                     0.20602799    -1.48843304     0.09721112
 H                     0.18757425     4.46317608     0.06242346
 H                    -1.50161533     3.84004621    -0.35926952
 H                     0.46309383    -0.00323663     1.74592097
 H                     2.13738821     0.52513660    -0.74769745
 H                     2.65235533    -0.21372133     0.71977316
 H                     1.78288927    -2.31906364    -0.95274093
 N                     0.21394900     2.47799950     0.05782776
 N                     1.42568598    -1.56127764    -0.39572844
 S                    -0.78679804     1.05075526    -0.13314867
 S                    -1.06928416    -2.51104049     0.00170801

 ==============================================================================
                                internuclear distances
 ------------------------------------------------------------------------------
       center one      |      center two      | atomic units |  angstroms
 ------------------------------------------------------------------------------
    3 C                |   2 C                |     2.95231  |     1.56230
    4 C                |   2 C                |     2.82556  |     1.49522
    5 H                |   1 C                |     1.99903  |     1.05784
    6 H                |   1 C                |     2.17801  |     1.15255
    7 H                |   2 C                |     2.10899  |     1.11603
    8 H                |   3 C                |     2.10371  |     1.11324
    9 H                |   3 C                |     1.99412  |     1.05524
   11 N                |   1 C                |     2.44136  |     1.29191
   12 N                |   3 C                |     2.76856  |     1.46506
   12 N                |   4 C                |     2.48975  |     1.31752
   12 N                |  10 H                |     1.90112  |     1.00603
   13 S                |   2 C                |     3.48916  |     1.84638
   13 S                |  11 N                |     3.31376  |     1.75357
   14 S                |   4 C                |     3.09435  |     1.63746
 ------------------------------------------------------------------------------
                         number of included internuclear distances:         14
 ==============================================================================



 ==============================================================================
                                 internuclear angles
 ------------------------------------------------------------------------------
        center 1       |       center 2       |       center 3       |  degrees
 ------------------------------------------------------------------------------
    5 H                |   1 C                |   6 H                |   113.49
    5 H                |   1 C                |  11 N                |   114.96
    6 H                |   1 C                |  11 N                |   131.54
    3 C                |   2 C                |   4 C                |    85.73
    3 C                |   2 C                |   7 H                |   111.40
    3 C                |   2 C                |  13 S                |   119.06
    4 C                |   2 C                |   7 H                |   116.88
    4 C                |   2 C                |  13 S                |   109.48
    7 H                |   2 C                |  13 S                |   112.08
    2 C                |   3 C                |   8 H                |   116.84
    2 C                |   3 C                |   9 H                |   115.59
    2 C                |   3 C                |  12 N                |    84.76
    8 H                |   3 C                |   9 H                |   105.09
    8 H                |   3 C                |  12 N                |   119.33
    9 H                |   3 C                |  12 N                |   114.97
    2 C                |   4 C                |  12 N                |    92.87
    2 C                |   4 C                |  14 S                |   135.27
   12 N                |   4 C                |  14 S                |   131.65
    1 C                |  11 N                |  13 S                |   114.91
    3 C                |  12 N                |   4 C                |    96.64
    3 C                |  12 N                |  10 H                |   137.77
    4 C                |  12 N                |  10 H                |   125.27
    2 C                |  13 S                |  11 N                |    95.29
 ------------------------------------------------------------------------------
                            number of included internuclear angles:         23
 ==============================================================================





 Summary of "ao basis" -> "" (cartesian)
 ------------------------------------------------------------------------------
       Tag                 Description            Shells   Functions and Types
 ---------------- ------------------------------  ------  ---------------------
 *                          cc-pvdz                   on all atoms 




                           NWChem Geometry Optimization
                           ----------------------------


  no constraints, skipping    0.0000000000000000     
 maximum gradient threshold         (gmax) =   0.000450
 rms gradient threshold             (grms) =   0.000300
 maximum cartesian step threshold   (xmax) =   0.001800
 rms cartesian step threshold       (xrms) =   0.001200
 fixed trust radius                (trust) =   0.300000
 maximum step size to saddle      (sadstp) =   0.100000
 energy precision                  (eprec) =   5.0D-06
 maximum number of steps          (nptopt) =   40
 initial hessian option           (inhess) =    0
 line search option               (linopt) =    1
 hessian update option            (modupd) =    1
 saddle point option              (modsad) =    0
 initial eigen-mode to follow     (moddir) =    0
 initial variable to follow       (vardir) =    0
 follow first negative mode     (firstneg) =    T
 apply conjugacy                    (opcg) =    F
 source of zmatrix                         =   autoz   


          -------------------
          Energy Minimization
          -------------------


 Names of Z-matrix variables 
    1              2              3              4              5         
    6              7              8              9             10         
   11             12             13             14             15         
   16             17             18             19             20         
   21             22             23             24             25         
   26             27             28             29             30         
   31             32             33             34             35         
   36             37             38             39             40         
   41             42             43             44             45         
   46             47             48             49             50         
   51             52             53             54             55         
   56             57             58             59             60         
   61             62             63             64             65         
   66             67             68         

 Variables with the same non-blank name are constrained to be equal


 Using diagonal initial Hessian 
 Scaling for Hessian diagonals: bonds = 1.00  angles = 0.25  torsions = 0.10

          --------
          Step   0
          --------


                         Geometry "geometry" -> "geometry"
                         ---------------------------------

 Output coordinates in angstroms (scale by  1.889725989 to convert to a.u.)

  No.       Tag          Charge          X              Y              Z
 ---- ---------------- ---------- -------------- -------------- --------------
    1 C                    6.0000    -0.40637685     3.60140037    -0.09115820
    2 C                    6.0000     0.42505194    -0.11086129     0.63574293
    3 C                    6.0000     1.85832774    -0.22624381     0.02486175
    4 C                    6.0000     0.20602799    -1.48843304     0.09721112
    5 H                    1.0000     0.18757425     4.46317608     0.06242346
    6 H                    1.0000    -1.50161533     3.84004621    -0.35926952
    7 H                    1.0000     0.46309383    -0.00323663     1.74592097
    8 H                    1.0000     2.13738821     0.52513660    -0.74769745
    9 H                    1.0000     2.65235533    -0.21372133     0.71977316
   10 H                    1.0000     1.78288927    -2.31906364    -0.95274093
   11 N                    7.0000     0.21394900     2.47799950     0.05782776
   12 N                    7.0000     1.42568598    -1.56127764    -0.39572844
   13 S                   16.0000    -0.78679804     1.05075526    -0.13314867
   14 S                   16.0000    -1.06928416    -2.51104049     0.00170801

      Atomic Mass 
      ----------- 

      C                 12.000000
      H                  1.007825
      N                 14.003070
      S                 31.972070


 Effective nuclear repulsion energy (a.u.)     493.9151094255

            Nuclear Dipole moment (a.u.) 
            ----------------------------
        X                 Y               Z
 ---------------- ---------------- ----------------
     0.0000000000     0.0000000000     0.0000000000


                                 NWChem DFT Module
                                 -----------------


                      Basis "ao basis" -> "ao basis" (cartesian)
                      -----
  C (Carbon)
  ----------
            Exponent  Coefficients 
       -------------- ---------------------------------------------------------
  1 S  6.66500000E+03  0.000692
  1 S  1.00000000E+03  0.005329
  1 S  2.28000000E+02  0.027077
  1 S  6.47100000E+01  0.101718
  1 S  2.10600000E+01  0.274740
  1 S  7.49500000E+00  0.448564
  1 S  2.79700000E+00  0.285074
  1 S  5.21500000E-01  0.015204

  2 S  6.66500000E+03 -0.000146
  2 S  1.00000000E+03 -0.001154
  2 S  2.28000000E+02 -0.005725
  2 S  6.47100000E+01 -0.023312
  2 S  2.10600000E+01 -0.063955
  2 S  7.49500000E+00 -0.149981
  2 S  2.79700000E+00 -0.127262
  2 S  5.21500000E-01  0.544529

  3 S  1.59600000E-01  1.000000

  4 P  9.43900000E+00  0.038109
  4 P  2.00200000E+00  0.209480
  4 P  5.45600000E-01  0.508557

  5 P  1.51700000E-01  1.000000

  6 D  5.50000000E-01  1.000000

  H (Hydrogen)
  ------------
            Exponent  Coefficients 
       -------------- ---------------------------------------------------------
  1 S  1.30100000E+01  0.019685
  1 S  1.96200000E+00  0.137977
  1 S  4.44600000E-01  0.478148

  2 S  1.22000000E-01  1.000000

  3 P  7.27000000E-01  1.000000

  N (Nitrogen)
  ------------
            Exponent  Coefficients 
       -------------- ---------------------------------------------------------
  1 S  9.04600000E+03  0.000700
  1 S  1.35700000E+03  0.005389
  1 S  3.09300000E+02  0.027406
  1 S  8.77300000E+01  0.103207
  1 S  2.85600000E+01  0.278723
  1 S  1.02100000E+01  0.448540
  1 S  3.83800000E+00  0.278238
  1 S  7.46600000E-01  0.015440

  2 S  9.04600000E+03 -0.000153
  2 S  1.35700000E+03 -0.001208
  2 S  3.09300000E+02 -0.005992
  2 S  8.77300000E+01 -0.024544
  2 S  2.85600000E+01 -0.067459
  2 S  1.02100000E+01 -0.158078
  2 S  3.83800000E+00 -0.121831
  2 S  7.46600000E-01  0.549003

  3 S  2.24800000E-01  1.000000

  4 P  1.35500000E+01  0.039919
  4 P  2.91700000E+00  0.217169
  4 P  7.97300000E-01  0.510319

  5 P  2.18500000E-01  1.000000

  6 D  8.17000000E-01  1.000000

  S (Sulphur)
  -----------
            Exponent  Coefficients 
       -------------- ---------------------------------------------------------
  1 S  1.10800000E+05  0.000248
  1 S  1.66100000E+04  0.001920
  1 S  3.78100000E+03  0.009962
  1 S  1.07100000E+03  0.040298
  1 S  3.49800000E+02  0.128604
  1 S  1.26300000E+02  0.303480
  1 S  4.92600000E+01  0.421432
  1 S  2.01600000E+01  0.230781
  1 S  5.72000000E+00  0.017897
  1 S  2.18200000E+00 -0.002975
  1 S  4.32700000E-01  0.000850

  2 S  1.10800000E+05 -0.000069
  2 S  1.66100000E+04 -0.000528
  2 S  3.78100000E+03 -0.002797
  2 S  1.07100000E+03 -0.011265
  2 S  3.49800000E+02 -0.038883
  2 S  1.26300000E+02 -0.099503
  2 S  4.92600000E+01 -0.199740
  2 S  2.01600000E+01 -0.123360
  2 S  5.72000000E+00  0.513194
  2 S  2.18200000E+00  0.607120
  2 S  4.32700000E-01  0.039675

  3 S  1.10800000E+05  0.000020
  3 S  1.66100000E+04  0.000153
  3 S  3.78100000E+03  0.000810
  3 S  1.07100000E+03  0.003290
  3 S  3.49800000E+02  0.011297
  3 S  1.26300000E+02  0.029639
  3 S  4.92600000E+01  0.059985
  3 S  2.01600000E+01  0.041325
  3 S  5.72000000E+00 -0.207474
  3 S  2.18200000E+00 -0.392889
  3 S  4.32700000E-01  0.632840

  4 S  1.57000000E-01  1.000000

  5 P  3.99700000E+02  0.004475
  5 P  9.41900000E+01  0.034171
  5 P  2.97500000E+01  0.144250
  5 P  1.07700000E+01  0.353928
  5 P  4.11900000E+00  0.459085
  5 P  1.62500000E+00  0.206383
  5 P  4.72600000E-01  0.010214

  6 P  3.99700000E+02 -0.001163
  6 P  9.41900000E+01 -0.008657
  6 P  2.97500000E+01 -0.039089
  6 P  1.07700000E+01 -0.093463
  6 P  4.11900000E+00 -0.147994
  6 P  1.62500000E+00  0.030190
  6 P  4.72600000E-01  0.561573

  7 P  1.40700000E-01  1.000000

  8 D  4.79000000E-01  1.000000



 Summary of "ao basis" -> "ao basis" (cartesian)
 ------------------------------------------------------------------------------
       Tag                 Description            Shells   Functions and Types
 ---------------- ------------------------------  ------  ---------------------
 C                          cc-pvdz                  6       15   3s2p1d
 H                          cc-pvdz                  3        5   2s1p
 N                          cc-pvdz                  6       15   3s2p1d
 S                          cc-pvdz                  8       19   4s3p1d




 Summary of "ao basis" -> "ao basis" (cartesian)
 ------------------------------------------------------------------------------
       Tag                 Description            Shells   Functions and Types
 ---------------- ------------------------------  ------  ---------------------
 C                          cc-pvdz                  6       15   3s2p1d
 H                          cc-pvdz                  3        5   2s1p
 N                          cc-pvdz                  6       15   3s2p1d
 S                          cc-pvdz                  8       19   4s3p1d


  Caching 1-el integrals 

            General Information
            -------------------
          SCF calculation type: DFT
          Wavefunction type:  closed shell.
          No. of atoms     :    14
          No. of electrons :    76
           Alpha electrons :    38
            Beta electrons :    38
          Charge           :     0
          Spin multiplicity:     1
          Use of symmetry is: off; symmetry adaption is: off
          Maximum number of iterations:  50
          AO basis - number of functions:   158
                     number of shells:    70
          Convergence on energy requested:  1.00D-06
          Convergence on density requested:  1.00D-05
          Convergence on gradient requested:  5.00D-04

              XC Information
              --------------
                         B3LYP Method XC Potential
                     Hartree-Fock (Exact) Exchange  0.200          
                        Slater Exchange Functional  0.800 local    
                    Becke 1988 Exchange Functional  0.720 non-local
              Lee-Yang-Parr Correlation Functional  0.810          
                  VWN I RPA Correlation Functional  0.190 local    

             Grid Information
             ----------------
          Grid used for XC integration:  medium    
          Radial quadrature: Mura-Knowles        
          Angular quadrature: Lebedev. 
          Tag              B.-S. Rad. Rad. Pts. Rad. Cut. Ang. Pts.
          ---              ---------- --------- --------- ---------
          C                   0.70       49          14.0       434
          H                   0.35       45          15.0       434
          N                   0.65       49          14.0       434
          S                   1.00       88          15.0       590
          Grid pruning is: on 
          Number of quadrature shells:   740
          Spatial weights used:  Erf1

          Convergence Information
          -----------------------
          Convergence aids based upon iterative change in 
          total energy or number of iterations. 
          Levelshifting, if invoked, occurs when the 
          HOMO/LUMO gap drops below (HL_TOL):  1.00D-02
          DIIS, if invoked, will attempt to extrapolate 
          using up to (NFOCK): 10 stored Fock matrices.

                    Damping( 0%)  Levelshifting(0.5)       DIIS
                  --------------- ------------------- ---------------
          dE  on:    start            ASAP                start   
          dE off:    2 iters         50 iters            50 iters 


      Screening Tolerance Information
      -------------------------------
          Density screening/tol_rho:  1.00D-10
          AO Gaussian exp screening on grid/accAOfunc:  14
          CD Gaussian exp screening on grid/accCDfunc:  20
          XC Gaussian exp screening on grid/accXCfunc:  20
          Schwarz screening/accCoul:  1.00D-08


      Superposition of Atomic Density Guess
      -------------------------------------

 Sum of atomic energies:       -1057.21544841

      Non-variational initial energy
      ------------------------------

 Total energy =   -1061.588452
 1-e energy   =   -2435.199886
 2-e energy   =     879.696325
 HOMO         =      -0.239704
 LUMO         =      -0.011045

   Time after variat. SCF:      1.5
   Time prior to 1st pass:      1.5
 Shared filesystem for scratch_dir 

 Integral file          = ./xyz49.aoints.0
 Record size in doubles =    65536    No. of integs per rec  =    43688
 Max. records in memory =     1222    Max. records in file   = 22920364
 No. of bits per label  =        8    No. of bits per value  =       64


 #quartets = 2.244D+06 #integrals = 4.868D+07 #direct =  0.0% #cached =100.0%


File balance: exchanges=     1  moved=    51  time=   0.0

 Shared filesystem for scratch_dir 

 Grid_pts file          = ./xyz49.gridpts.0
 Record size in doubles =  12289        No. of grid_pts per rec  =   3070
 Max. records in memory =     80        Max. recs in file   = 122231998


           Memory utilization after 1st SCF pass: 
           Heap Space remaining (MW):      350.02           350022611
          Stack Space remaining (MW):      431.13           431125540

   convergence    iter        energy       DeltaE   RMS-Dens  Diis-err    time
 ---------------- ----- ----------------- --------- --------- ---------  ------
 d= 0,ls=0.0,diis     1  -1061.7571285735 -1.56D+03  1.24D-02  1.24D+00     6.3
 d= 0,ls=0.0,diis     2  -1061.5129443010  2.44D-01  1.06D-02  2.68D+00     7.1
 d= 0,ls=0.0,diis     3  -1061.8537387928 -3.41D-01  3.11D-03  2.95D-01     7.9
 d= 0,ls=0.0,diis     4  -1061.8912486340 -3.75D-02  9.02D-04  3.91D-02     8.8
 d= 0,ls=0.0,diis     5  -1061.8954254841 -4.18D-03  2.91D-04  3.78D-03     9.7
  Resetting Diis
 d= 0,ls=0.0,diis     6  -1061.8957682444 -3.43D-04  1.32D-04  6.75D-04    10.6
 d= 0,ls=0.0,diis     7  -1061.8958417973 -7.36D-05  1.08D-04  1.07D-04    11.5
 d= 0,ls=0.0,diis     8  -1061.8957989932  4.28D-05  7.44D-05  4.95D-04    12.4
 d= 0,ls=0.0,diis     9  -1061.8958534137 -5.44D-05  8.76D-06  3.16D-06    13.3
 d= 0,ls=0.0,diis    10  -1061.8958537958 -3.82D-07  2.07D-06  1.80D-07    14.2


         Total DFT energy =    -1061.895853795805
      One electron energy =    -2440.227725685973
           Coulomb energy =      973.536654439718
    Exchange-Corr. energy =      -89.119891975029
 Nuclear repulsion energy =      493.915109425479

 Numeric. integr. density =       75.999992587188

     Total iterative time =     12.7s



                       DFT Final Molecular Orbital Analysis
                       ------------------------------------

 Vector    1  Occ=2.000000D+00  E=-8.892115D+01
              MO Center= -7.9D-01,  1.1D+00, -1.3D-01, r^2= 3.6D-03
   Bfn.  Coefficient  Atom+Function         Bfn.  Coefficient  Atom+Function  
  ----- ------------  ---------------      ----- ------------  ---------------
   121      1.000034  13 S  s         

 Vector    2  Occ=2.000000D+00  E=-8.883435D+01
              MO Center= -1.1D+00, -2.5D+00,  1.7D-03, r^2= 3.6D-03
   Bfn.  Coefficient  Atom+Function         Bfn.  Coefficient  Atom+Function  
  ----- ------------  ---------------      ----- ------------  ---------------
   140      1.000014  14 S  s         

 Vector    3  Occ=2.000000D+00  E=-1.438742D+01
              MO Center=  1.4D+00, -1.6D+00, -4.0D-01, r^2= 2.0D-02
   Bfn.  Coefficient  Atom+Function         Bfn.  Coefficient  Atom+Function  
  ----- ------------  ---------------      ----- ------------  ---------------
   106      1.003528  12 N  s         

 Vector    4  Occ=2.000000D+00  E=-1.437885D+01
              MO Center=  2.1D-01,  2.5D+00,  5.8D-02, r^2= 2.0D-02
   Bfn.  Coefficient  Atom+Function         Bfn.  Coefficient  Atom+Function  
  ----- ------------  ---------------      ----- ------------  ---------------
    91      1.003581  11 N  s         

 Vector    5  Occ=2.000000D+00  E=-1.027806D+01
              MO Center=  2.1D-01, -1.5D+00,  9.7D-02, r^2= 2.8D-02
   Bfn.  Coefficient  Atom+Function         Bfn.  Coefficient  Atom+Function  
  ----- ------------  ---------------      ----- ------------  ---------------
    46      1.003819   4 C  s         

 Vector    6  Occ=2.000000D+00  E=-1.025527D+01
              MO Center=  1.9D+00, -2.3D-01,  2.5D-02, r^2= 2.8D-02
   Bfn.  Coefficient  Atom+Function         Bfn.  Coefficient  Atom+Function  
  ----- ------------  ---------------      ----- ------------  ---------------
    31      1.003600   3 C  s         

 Vector    7  Occ=2.000000D+00  E=-1.024935D+01
              MO Center= -4.1D-01,  3.6D+00, -9.1D-02, r^2= 2.8D-02
   Bfn.  Coefficient  Atom+Function         Bfn.  Coefficient  Atom+Function  
  ----- ------------  ---------------      ----- ------------  ---------------
     1      1.003734   1 C  s         

 Vector    8  Occ=2.000000D+00  E=-1.024735D+01
              MO Center=  4.3D-01, -1.1D-01,  6.4D-01, r^2= 2.8D-02
   Bfn.  Coefficient  Atom+Function         Bfn.  Coefficient  Atom+Function  
  ----- ------------  ---------------      ----- ------------  ---------------
    16      1.003620   2 C  s         

 Vector    9  Occ=2.000000D+00  E=-7.973769D+00
              MO Center= -7.8D-01,  1.1D+00, -1.3D-01, r^2= 7.7D-02
   Bfn.  Coefficient  Atom+Function         Bfn.  Coefficient  Atom+Function  
  ----- ------------  ---------------      ----- ------------  ---------------
   122      1.011698  13 S  s               123      0.027987  13 S  s         

 Vector   10  Occ=2.000000D+00  E=-7.891222D+00
              MO Center= -1.1D+00, -2.5D+00,  1.8D-03, r^2= 7.7D-02
   Bfn.  Coefficient  Atom+Function         Bfn.  Coefficient  Atom+Function  
  ----- ------------  ---------------      ----- ------------  ---------------
   141      1.012292  14 S  s               142      0.028739  14 S  s         

 Vector   11  Occ=2.000000D+00  E=-5.939158D+00
              MO Center= -7.9D-01,  1.1D+00, -1.3D-01, r^2= 6.9D-02
   Bfn.  Coefficient  Atom+Function         Bfn.  Coefficient  Atom+Function  
  ----- ------------  ---------------      ----- ------------  ---------------
   126      0.985092  13 S  py              125      0.130713  13 S  px        
   127     -0.122694  13 S  pz        

 Vector   12  Occ=2.000000D+00  E=-5.935233D+00
              MO Center= -7.9D-01,  1.1D+00, -1.3D-01, r^2= 6.9D-02
   Bfn.  Coefficient  Atom+Function         Bfn.  Coefficient  Atom+Function  
  ----- ------------  ---------------      ----- ------------  ---------------
   125      0.899111  13 S  px              127      0.435190  13 S  pz        
   126     -0.065223  13 S  py        

 Vector   13  Occ=2.000000D+00  E=-5.927304D+00
              MO Center= -7.9D-01,  1.1D+00, -1.3D-01, r^2= 6.8D-02
   Bfn.  Coefficient  Atom+Function         Bfn.  Coefficient  Atom+Function  
  ----- ------------  ---------------      ----- ------------  ---------------
   127      0.892911  13 S  pz              125     -0.420142  13 S  px        
   126      0.167046  13 S  py        

 Vector   14  Occ=2.000000D+00  E=-5.855513D+00
              MO Center= -1.1D+00, -2.5D+00,  1.5D-03, r^2= 6.9D-02
   Bfn.  Coefficient  Atom+Function         Bfn.  Coefficient  Atom+Function  
  ----- ------------  ---------------      ----- ------------  ---------------
   144      0.785683  14 S  px              145      0.614317  14 S  py        
   146      0.089762  14 S  pz        

 Vector   15  Occ=2.000000D+00  E=-5.851370D+00
              MO Center= -1.1D+00, -2.5D+00,  1.7D-03, r^2= 6.9D-02
   Bfn.  Coefficient  Atom+Function         Bfn.  Coefficient  Atom+Function  
  ----- ------------  ---------------      ----- ------------  ---------------
   146      0.833373  14 S  pz              145     -0.478959  14 S  py        
   144      0.279236  14 S  px        

 Vector   16  Occ=2.000000D+00  E=-5.846630D+00
              MO Center= -1.1D+00, -2.5D+00,  1.7D-03, r^2= 6.8D-02
   Bfn.  Coefficient  Atom+Function         Bfn.  Coefficient  Atom+Function  
  ----- ------------  ---------------      ----- ------------  ---------------
   145      0.628820  14 S  py              144     -0.554168  14 S  px        
   146      0.547068  14 S  pz        

 Vector   17  Occ=2.000000D+00  E=-1.017601D+00
              MO Center=  1.1D+00, -1.2D+00, -1.4D-01, r^2= 1.0D+00
   Bfn.  Coefficient  Atom+Function         Bfn.  Coefficient  Atom+Function  
  ----- ------------  ---------------      ----- ------------  ---------------
   107      0.328187  12 N  s               108      0.296983  12 N  s         
    47      0.206485   4 C  s                32      0.150745   3 C  s         
    49      0.123233   4 C  px               18      0.121431   2 C  s         
    17      0.113002   2 C  s                86      0.100306  10 H  s         
    35     -0.077165   3 C  py              109     -0.067759  12 N  px        

 Vector   18  Occ=2.000000D+00  E=-9.352201D-01
              MO Center= -1.1D-01,  2.5D+00, -1.1D-02, r^2= 1.1D+00
   Bfn.  Coefficient  Atom+Function         Bfn.  Coefficient  Atom+Function  
  ----- ------------  ---------------      ----- ------------  ---------------
    92      0.358757  11 N  s                93      0.326492  11 N  s         
     2      0.213981   1 C  s               123      0.173351  13 S  s         
     5     -0.133783   1 C  py               94     -0.114064  11 N  px        
     3      0.100492   1 C  s               124      0.080439  13 S  s         
     4      0.064452   1 C  px              129      0.063798  13 S  py        

 Vector   19  Occ=2.000000D+00  E=-7.954175D-01
              MO Center=  4.3D-01,  2.3D-02,  1.1D-01, r^2= 3.7D+00
   Bfn.  Coefficient  Atom+Function         Bfn.  Coefficient  Atom+Function  
  ----- ------------  ---------------      ----- ------------  ---------------
    17      0.258380   2 C  s               123      0.239521  13 S  s         
    18      0.201152   2 C  s               107     -0.196047  12 N  s         
   108     -0.186546  12 N  s               124      0.167173  13 S  s         
    86     -0.151582  10 H  s                 2     -0.116410   1 C  s         
    95     -0.108374  11 N  py               50      0.098797   4 C  py        

 Vector   20  Occ=2.000000D+00  E=-7.588933D-01
              MO Center=  3.4D-01, -1.5D+00,  1.4D-02, r^2= 2.7D+00
   Bfn.  Coefficient  Atom+Function         Bfn.  Coefficient  Atom+Function  
  ----- ------------  ---------------      ----- ------------  ---------------
   142      0.301268  14 S  s                47      0.250173   4 C  s         
   143      0.247820  14 S  s                32     -0.222142   3 C  s         
    48      0.221993   4 C  s               109     -0.121704  12 N  px        
    33     -0.119887   3 C  s                81     -0.108470   9 H  s         
   110     -0.103076  12 N  py               50     -0.096568   4 C  py        

 Vector   21  Occ=2.000000D+00  E=-7.167537D-01
              MO Center=  2.8D-01,  5.9D-01, -8.4D-02, r^2= 5.6D+00
   Bfn.  Coefficient  Atom+Function         Bfn.  Coefficient  Atom+Function  
  ----- ------------  ---------------      ----- ------------  ---------------
   123      0.321952  13 S  s               124      0.282731  13 S  s         
    86      0.178301  10 H  s                95     -0.179016  11 N  py        
     2     -0.176974   1 C  s               108      0.149479  12 N  s         
   107      0.148023  12 N  s                32     -0.129424   3 C  s         
   110     -0.123854  12 N  py                3     -0.121849   1 C  s         

 Vector   22  Occ=2.000000D+00  E=-6.585731D-01
              MO Center=  8.2D-01, -9.1D-01,  1.5D-02, r^2= 4.3D+00
   Bfn.  Coefficient  Atom+Function         Bfn.  Coefficient  Atom+Function  
  ----- ------------  ---------------      ----- ------------  ---------------
   142      0.291170  14 S  s               143      0.249363  14 S  s         
    32      0.229731   3 C  s                49     -0.195146   4 C  px        
    81      0.178375   9 H  s               109      0.168109  12 N  px        
    76      0.155494   8 H  s                33      0.153400   3 C  s         
    50     -0.145289   4 C  py               34      0.128325   3 C  px        

 Vector   23  Occ=2.000000D+00  E=-6.085966D-01
              MO Center=  1.1D-01,  1.7D+00, -6.8D-02, r^2= 7.6D+00
   Bfn.  Coefficient  Atom+Function         Bfn.  Coefficient  Atom+Function  
  ----- ------------  ---------------      ----- ------------  ---------------
     2      0.220092   1 C  s                61      0.204642   5 H  s         
    86      0.189770  10 H  s                93     -0.182950  11 N  s         
     5      0.179089   1 C  py                3      0.174362   1 C  s         
    92     -0.173433  11 N  s                66      0.162731   6 H  s         
    18      0.147957   2 C  s               109      0.139578  12 N  px        

 Vector   24  Occ=2.000000D+00  E=-5.700980D-01
              MO Center=  2.7D-01,  6.9D-01,  1.9D-01, r^2= 6.4D+00
   Bfn.  Coefficient  Atom+Function         Bfn.  Coefficient  Atom+Function  
  ----- ------------  ---------------      ----- ------------  ---------------
   124      0.236685  13 S  s                71     -0.212211   7 H  s         
   123      0.210004  13 S  s                18     -0.198955   2 C  s         
    86     -0.195259  10 H  s                17     -0.190896   2 C  s         
   110      0.188489  12 N  py               21     -0.162404   2 C  pz        
    66      0.144861   6 H  s                 5      0.140980   1 C  py        

 Vector   25  Occ=2.000000D+00  E=-5.107434D-01
              MO Center=  7.7D-01,  1.4D-01,  9.8D-02, r^2= 5.3D+00
   Bfn.  Coefficient  Atom+Function         Bfn.  Coefficient  Atom+Function  
  ----- ------------  ---------------      ----- ------------  ---------------
    36      0.221843   3 C  pz               81      0.188358   9 H  s         
    21      0.179269   2 C  pz                4     -0.166010   1 C  px        
   111      0.161962  12 N  pz              110     -0.157415  12 N  py        
    50     -0.151921   4 C  py               49      0.142452   4 C  px        
    95     -0.140341  11 N  py              129      0.139867  13 S  py        

 Vector   26  Occ=2.000000D+00  E=-5.009563D-01
              MO Center=  1.1D+00, -4.5D-01, -1.6D-01, r^2= 4.0D+00
   Bfn.  Coefficient  Atom+Function         Bfn.  Coefficient  Atom+Function  
  ----- ------------  ---------------      ----- ------------  ---------------
    35      0.317347   3 C  py              109     -0.273937  12 N  px        
    76      0.216658   8 H  s               110     -0.183859  12 N  py        
   143     -0.183873  14 S  s                51     -0.148779   4 C  pz        
   112     -0.134968  12 N  px              142     -0.132940  14 S  s         
    38      0.117003   3 C  py              111     -0.096706  12 N  pz        

 Vector   27  Occ=2.000000D+00  E=-4.687238D-01
              MO Center=  3.3D-01,  9.6D-01,  4.0D-02, r^2= 6.3D+00
   Bfn.  Coefficient  Atom+Function         Bfn.  Coefficient  Atom+Function  
  ----- ------------  ---------------      ----- ------------  ---------------
   124      0.240621  13 S  s                 4      0.236931   1 C  px        
    34      0.224804   3 C  px               81      0.201393   9 H  s         
    66     -0.188550   6 H  s                95      0.188114  11 N  py        
   123      0.169608  13 S  s                19     -0.145331   2 C  px        
   129     -0.130696  13 S  py              111      0.129877  12 N  pz        

 Vector   28  Occ=2.000000D+00  E=-4.618734D-01
              MO Center=  5.2D-02,  1.4D+00,  3.5D-02, r^2= 7.6D+00
   Bfn.  Coefficient  Atom+Function         Bfn.  Coefficient  Atom+Function  
  ----- ------------  ---------------      ----- ------------  ---------------
     5      0.242358   1 C  py               61      0.231256   5 H  s         
   143      0.211101  14 S  s                 4      0.188235   1 C  px        
    94      0.170143  11 N  px               20      0.161993   2 C  py        
   142      0.138388  14 S  s                66     -0.127968   6 H  s         
    50     -0.122162   4 C  py               49      0.119988   4 C  px        

 Vector   29  Occ=2.000000D+00  E=-4.258325D-01
              MO Center= -7.8D-02,  6.8D-01,  9.0D-02, r^2= 6.1D+00
   Bfn.  Coefficient  Atom+Function         Bfn.  Coefficient  Atom+Function  
  ----- ------------  ---------------      ----- ------------  ---------------
    95      0.292417  11 N  py                5     -0.246929   1 C  py        
   143      0.217243  14 S  s                93     -0.214380  11 N  s         
    20      0.172685   2 C  py               48     -0.166881   4 C  s         
    49      0.150598   4 C  px               51     -0.147461   4 C  pz        
   124      0.147905  13 S  s               109     -0.141557  12 N  px        

 Vector   30  Occ=2.000000D+00  E=-4.035362D-01
              MO Center=  8.1D-01, -5.8D-02,  2.2D-01, r^2= 3.7D+00
   Bfn.  Coefficient  Atom+Function         Bfn.  Coefficient  Atom+Function  
  ----- ------------  ---------------      ----- ------------  ---------------
    36     -0.280159   3 C  pz               21      0.264794   2 C  pz        
    71      0.211565   7 H  s               110      0.188594  12 N  py        
    19     -0.184515   2 C  px               76      0.157911   8 H  s         
    86     -0.158561  10 H  s               130      0.156442  13 S  pz        
    96      0.141133  11 N  pz               34      0.138963   3 C  px        

 Vector   31  Occ=2.000000D+00  E=-3.791304D-01
              MO Center=  2.2D-01,  1.2D+00,  5.5D-02, r^2= 4.6D+00
   Bfn.  Coefficient  Atom+Function         Bfn.  Coefficient  Atom+Function  
  ----- ------------  ---------------      ----- ------------  ---------------
    96      0.267977  11 N  pz              130      0.196744  13 S  pz        
   124     -0.179553  13 S  s                99      0.171349  11 N  pz        
    21     -0.169922   2 C  pz               36      0.162020   3 C  pz        
     6      0.154387   1 C  pz               76     -0.152234   8 H  s         
    81      0.152550   9 H  s               133      0.145964  13 S  pz        

 Vector   32  Occ=2.000000D+00  E=-3.617349D-01
              MO Center=  1.6D-01,  1.4D+00,  4.0D-02, r^2= 5.0D+00
   Bfn.  Coefficient  Atom+Function         Bfn.  Coefficient  Atom+Function  
  ----- ------------  ---------------      ----- ------------  ---------------
    96      0.288911  11 N  pz                6      0.251436   1 C  pz        
    99      0.184565  11 N  pz              128     -0.166656  13 S  px        
    20     -0.158936   2 C  py               19      0.155872   2 C  px        
    51      0.155403   4 C  pz                9      0.146843   1 C  pz        
   129      0.145363  13 S  py              124      0.134714  13 S  s         

 Vector   33  Occ=2.000000D+00  E=-3.553382D-01
              MO Center=  2.5D-01, -9.5D-01, -2.6D-02, r^2= 5.0D+00
   Bfn.  Coefficient  Atom+Function         Bfn.  Coefficient  Atom+Function  
  ----- ------------  ---------------      ----- ------------  ---------------
   111      0.254518  12 N  pz               49      0.216498   4 C  px        
   143      0.208421  14 S  s                51      0.200025   4 C  pz        
    19     -0.185030   2 C  px              114      0.177072  12 N  pz        
   148     -0.172679  14 S  py              147     -0.155418  14 S  px        
    76      0.153845   8 H  s               110     -0.144446  12 N  py        

 Vector   34  Occ=2.000000D+00  E=-3.478461D-01
              MO Center=  1.5D-01, -1.2D+00,  6.3D-02, r^2= 4.3D+00
   Bfn.  Coefficient  Atom+Function         Bfn.  Coefficient  Atom+Function  
  ----- ------------  ---------------      ----- ------------  ---------------
    50      0.304114   4 C  py              147     -0.256263  14 S  px        
   143      0.241189  14 S  s                20     -0.209366   2 C  py        
   111     -0.202623  12 N  pz               34      0.183683   3 C  px        
   150     -0.163991  14 S  px              109     -0.162338  12 N  px        
    81      0.138107   9 H  s               114     -0.129854  12 N  pz        

 Vector   35  Occ=2.000000D+00  E=-2.832520D-01
              MO Center= -1.4D-01,  2.2D+00, -2.8D-03, r^2= 2.9D+00
   Bfn.  Coefficient  Atom+Function         Bfn.  Coefficient  Atom+Function  
  ----- ------------  ---------------      ----- ------------  ---------------
    94      0.418772  11 N  px               97      0.309382  11 N  px        
    93      0.244752  11 N  s               128     -0.241301  13 S  px        
    67      0.190364   6 H  s                66      0.180771   6 H  s         
   131     -0.180582  13 S  px              124      0.177411  13 S  s         
    18     -0.166037   2 C  s                61     -0.151142   5 H  s         

 Vector   36  Occ=2.000000D+00  E=-2.392347D-01
              MO Center= -5.4D-01,  1.2D+00, -6.3D-02, r^2= 3.6D+00
   Bfn.  Coefficient  Atom+Function         Bfn.  Coefficient  Atom+Function  
  ----- ------------  ---------------      ----- ------------  ---------------
   130      0.436283  13 S  pz              133      0.413324  13 S  pz        
     6     -0.243589   1 C  pz              128     -0.209488  13 S  px        
   131     -0.207065  13 S  px                9     -0.181624   1 C  pz        
    71     -0.115529   7 H  s               149      0.114711  14 S  pz        
    96     -0.110148  11 N  pz              152      0.108845  14 S  pz        

 Vector   37  Occ=2.000000D+00  E=-2.305094D-01
              MO Center= -2.7D-01, -1.9D+00, -7.2D-02, r^2= 3.8D+00
   Bfn.  Coefficient  Atom+Function         Bfn.  Coefficient  Atom+Function  
  ----- ------------  ---------------      ----- ------------  ---------------
   149      0.341756  14 S  pz              152      0.323501  14 S  pz        
   111     -0.265895  12 N  pz              148     -0.227007  14 S  py        
   114     -0.225498  12 N  pz              151     -0.217236  14 S  py        
   147      0.140511  14 S  px              110      0.132504  12 N  py        
   150      0.132188  14 S  px              113      0.118996  12 N  py        

 Vector   38  Occ=2.000000D+00  E=-2.098752D-01
              MO Center= -8.7D-01, -2.3D+00,  7.3D-03, r^2= 2.4D+00
   Bfn.  Coefficient  Atom+Function         Bfn.  Coefficient  Atom+Function  
  ----- ------------  ---------------      ----- ------------  ---------------
   151      0.329413  14 S  py              148      0.325106  14 S  py        
   149      0.296968  14 S  pz              152      0.297817  14 S  pz        
   147     -0.271460  14 S  px              150     -0.271516  14 S  px        
    18     -0.189775   2 C  s               108      0.155275  12 N  s         
    20      0.130234   2 C  py               23      0.104667   2 C  py        

 Vector   39  Occ=0.000000D+00  E=-3.611497D-02
              MO Center= -2.1D-01,  2.9D+00, -4.1D-02, r^2= 2.5D+00
   Bfn.  Coefficient  Atom+Function         Bfn.  Coefficient  Atom+Function  
  ----- ------------  ---------------      ----- ------------  ---------------
     9      0.532932   1 C  pz               99     -0.491830  11 N  pz        
     6      0.430825   1 C  pz               96     -0.423493  11 N  pz        
    48     -0.223998   4 C  s               133      0.165725  13 S  pz        
    53     -0.154457   4 C  py                7     -0.135086   1 C  px        
    23     -0.126712   2 C  py               18      0.121771   2 C  s         

 Vector   40  Occ=0.000000D+00  E=-3.092393D-02
              MO Center= -1.9D-02, -1.3D+00,  3.3D-02, r^2= 4.0D+00
   Bfn.  Coefficient  Atom+Function         Bfn.  Coefficient  Atom+Function  
  ----- ------------  ---------------      ----- ------------  ---------------
    54      0.414116   4 C  pz               51      0.407096   4 C  pz        
   152     -0.351332  14 S  pz              114     -0.281098  12 N  pz        
   124      0.257207  13 S  s               111     -0.241575  12 N  pz        
   132     -0.237938  13 S  py              131      0.236574  13 S  px        
    53     -0.233123   4 C  py              149     -0.215229  14 S  pz        

 Vector   41  Occ=0.000000D+00  E=-3.526156D-03
              MO Center= -6.0D-01,  1.1D+00, -6.6D-02, r^2= 4.1D+00
   Bfn.  Coefficient  Atom+Function         Bfn.  Coefficient  Atom+Function  
  ----- ------------  ---------------      ----- ------------  ---------------
   132      0.745612  13 S  py               93     -0.599571  11 N  s         
    18      0.523143   2 C  s                67      0.441727   6 H  s         
   129      0.355841  13 S  py               23      0.271535   2 C  py        
    97      0.259950  11 N  px                7      0.245911   1 C  px        
    48      0.244128   4 C  s                95      0.224674  11 N  py        

 Vector   42  Occ=0.000000D+00  E= 4.449047D-02
              MO Center=  1.3D+00, -7.0D-01, -1.4D-01, r^2= 7.2D+00
   Bfn.  Coefficient  Atom+Function         Bfn.  Coefficient  Atom+Function  
  ----- ------------  ---------------      ----- ------------  ---------------
    33      0.892872   3 C  s                87     -0.892424  10 H  s         
   108      0.747581  12 N  s                72     -0.613980   7 H  s         
    18      0.598710   2 C  s                82     -0.560338   9 H  s         
    77     -0.556036   8 H  s               124     -0.476268  13 S  s         
   131     -0.349587  13 S  px               38      0.338257   3 C  py        

 Vector   43  Occ=0.000000D+00  E= 6.325677D-02
              MO Center=  1.3D+00, -6.4D-01, -4.5D-02, r^2= 8.0D+00
   Bfn.  Coefficient  Atom+Function         Bfn.  Coefficient  Atom+Function  
  ----- ------------  ---------------      ----- ------------  ---------------
    18      1.175870   2 C  s                87      0.926505  10 H  s         
    33      0.667021   3 C  s               108     -0.657393  12 N  s         
    72     -0.642184   7 H  s                82     -0.599883   9 H  s         
    48     -0.525113   4 C  s                 3     -0.513813   1 C  s         
    37      0.413657   3 C  px               77     -0.370255   8 H  s         

 Vector   44  Occ=0.000000D+00  E= 7.386392D-02
              MO Center=  7.2D-01,  1.4D+00,  5.1D-01, r^2= 9.7D+00
   Bfn.  Coefficient  Atom+Function         Bfn.  Coefficient  Atom+Function  
  ----- ------------  ---------------      ----- ------------  ---------------
    82     -1.057696   9 H  s                 3      0.978674   1 C  s         
    62     -0.969666   5 H  s                33      0.709417   3 C  s         
    72     -0.671021   7 H  s               124      0.582237  13 S  s         
    24      0.478645   2 C  pz              131      0.470149  13 S  px        
    67     -0.418038   6 H  s                 8      0.340655   1 C  py        

 Vector   45  Occ=0.000000D+00  E= 8.019541D-02
              MO Center= -5.2D-01,  2.6D+00, -1.3D-01, r^2= 9.0D+00
   Bfn.  Coefficient  Atom+Function         Bfn.  Coefficient  Atom+Function  
  ----- ------------  ---------------      ----- ------------  ---------------
     3      1.484140   1 C  s                67     -1.286566   6 H  s         
    62     -0.628038   5 H  s                33     -0.604926   3 C  s         
    82      0.558358   9 H  s                18      0.536528   2 C  s         
    23      0.429695   2 C  py              131     -0.421299  13 S  px        
   124     -0.367850  13 S  s                 7     -0.353474   1 C  px        

 Vector   46  Occ=0.000000D+00  E= 9.251971D-02
              MO Center=  1.5D+00,  7.2D-01,  9.6D-02, r^2= 6.6D+00
   Bfn.  Coefficient  Atom+Function         Bfn.  Coefficient  Atom+Function  
  ----- ------------  ---------------      ----- ------------  ---------------
    77     -1.450357   8 H  s                33      1.398365   3 C  s         
    72      1.144759   7 H  s                18     -0.685812   2 C  s         
    62     -0.602501   5 H  s                24     -0.522370   2 C  pz        
    38      0.366282   3 C  py               39     -0.357419   3 C  pz        
     3      0.339700   1 C  s                23     -0.308216   2 C  py        

 Vector   47  Occ=0.000000D+00  E= 1.173549D-01
              MO Center=  1.1D+00, -2.8D-01, -4.7D-02, r^2= 7.7D+00
   Bfn.  Coefficient  Atom+Function         Bfn.  Coefficient  Atom+Function  
  ----- ------------  ---------------      ----- ------------  ---------------
    18      1.075012   2 C  s                22      0.762597   2 C  px        
    39     -0.747098   3 C  pz               87     -0.738451  10 H  s         
    82      0.629154   9 H  s                33     -0.612175   3 C  s         
    38     -0.572666   3 C  py               62     -0.550411   5 H  s         
   113     -0.450220  12 N  py              143     -0.451893  14 S  s         

 Vector   48  Occ=0.000000D+00  E= 1.295689D-01
              MO Center=  8.6D-02,  2.1D+00,  1.7D-01, r^2= 1.2D+01
   Bfn.  Coefficient  Atom+Function         Bfn.  Coefficient  Atom+Function  
  ----- ------------  ---------------      ----- ------------  ---------------
    62      1.515063   5 H  s                67     -0.969130   6 H  s         
    48      0.767863   4 C  s                82     -0.766174   9 H  s         
     7     -0.721073   1 C  px                8     -0.673739   1 C  py        
   143     -0.582376  14 S  s                72      0.515456   7 H  s         
   150     -0.479191  14 S  px               33      0.417505   3 C  s         

 Vector   49  Occ=0.000000D+00  E= 1.345806D-01
              MO Center=  1.2D-01, -8.3D-01, -1.2D-02, r^2= 7.7D+00
   Bfn.  Coefficient  Atom+Function         Bfn.  Coefficient  Atom+Function  
  ----- ------------  ---------------      ----- ------------  ---------------
    48      1.750431   4 C  s               143     -0.731938  14 S  s         
    23      0.632070   2 C  py               87      0.624989  10 H  s         
   151     -0.606749  14 S  py               22      0.547378   2 C  px        
    18     -0.535232   2 C  s               150     -0.533009  14 S  px        
    67      0.525484   6 H  s               113      0.451320  12 N  py        

 Vector   50  Occ=0.000000D+00  E= 1.588137D-01
              MO Center=  8.5D-01,  5.3D-01,  1.2D-01, r^2= 9.1D+00
   Bfn.  Coefficient  Atom+Function         Bfn.  Coefficient  Atom+Function  
  ----- ------------  ---------------      ----- ------------  ---------------
    77      1.363430   8 H  s                82     -0.930275   9 H  s         
    72      0.889267   7 H  s                39      0.837857   3 C  pz        
    62     -0.828522   5 H  s                38     -0.732855   3 C  py        
    24     -0.688379   2 C  pz               22     -0.674125   2 C  px        
    53     -0.648394   4 C  py              124     -0.543813  13 S  s         

 Vector   51  Occ=0.000000D+00  E= 1.632854D-01
              MO Center=  5.6D-01, -8.0D-01,  4.3D-01, r^2= 6.6D+00
   Bfn.  Coefficient  Atom+Function         Bfn.  Coefficient  Atom+Function  
  ----- ------------  ---------------      ----- ------------  ---------------
    37      1.294045   3 C  px               82     -1.233244   9 H  s         
   143      0.962871  14 S  s                72      0.878602   7 H  s         
    24     -0.791618   2 C  pz              150      0.704797  14 S  px        
    52      0.663414   4 C  px               22      0.646521   2 C  px        
    53      0.600507   4 C  py               33     -0.593755   3 C  s         

 Vector   52  Occ=0.000000D+00  E= 2.460062D-01
              MO Center= -3.0D-01,  2.7D+00, -8.9D-02, r^2= 6.4D+00
   Bfn.  Coefficient  Atom+Function         Bfn.  Coefficient  Atom+Function  
  ----- ------------  ---------------      ----- ------------  ---------------
    93      2.005656  11 N  s                 8      1.630251   1 C  py        
     3     -1.550606   1 C  s                 7     -1.198935   1 C  px        
    98      1.028067  11 N  py               67     -0.838338   6 H  s         
    18      0.762503   2 C  s                33     -0.747358   3 C  s         
    53     -0.561037   4 C  py               24     -0.487551   2 C  pz        

 Vector   53  Occ=0.000000D+00  E= 2.548200D-01
              MO Center=  3.1D-01, -7.5D-01,  2.7D-02, r^2= 6.5D+00
   Bfn.  Coefficient  Atom+Function         Bfn.  Coefficient  Atom+Function  
  ----- ------------  ---------------      ----- ------------  ---------------
    18      1.700155   2 C  s                53     -1.273859   4 C  py        
    23     -1.128157   2 C  py               33     -1.018611   3 C  s         
    38      1.017183   3 C  py               54     -0.813995   4 C  pz        
   112      0.742017  12 N  px               93     -0.706819  11 N  s         
   113      0.697248  12 N  py               37      0.690613   3 C  px        

 Vector   54  Occ=0.000000D+00  E= 2.943005D-01
              MO Center=  6.6D-01, -6.6D-01, -1.6D-01, r^2= 5.7D+00
   Bfn.  Coefficient  Atom+Function         Bfn.  Coefficient  Atom+Function  
  ----- ------------  ---------------      ----- ------------  ---------------
    18      2.890914   2 C  s               108      2.670501  12 N  s         
    48     -2.633631   4 C  s                52     -2.549124   4 C  px        
    33     -1.794603   3 C  s               143     -1.657967  14 S  s         
    37      1.484428   3 C  px               53     -1.474263   4 C  py        
    24     -1.295811   2 C  pz               23     -1.227603   2 C  py        

 Vector   55  Occ=0.000000D+00  E= 3.669850D-01
              MO Center=  8.0D-02, -3.9D-01,  7.1D-02, r^2= 5.7D+00
   Bfn.  Coefficient  Atom+Function         Bfn.  Coefficient  Atom+Function  
  ----- ------------  ---------------      ----- ------------  ---------------
    23      1.171538   2 C  py               52      1.038033   4 C  px        
    18     -0.893809   2 C  s                48      0.893320   4 C  s         
    22     -0.816080   2 C  px              108     -0.652017  12 N  s         
    53      0.477581   4 C  py              142      0.470732  14 S  s         
    24      0.460164   2 C  pz              124     -0.461062  13 S  s         

 Vector   56  Occ=0.000000D+00  E= 3.768946D-01
              MO Center= -1.6D-01, -3.9D-01,  1.7D-01, r^2= 6.0D+00
   Bfn.  Coefficient  Atom+Function         Bfn.  Coefficient  Atom+Function  
  ----- ------------  ---------------      ----- ------------  ---------------
    18      1.116212   2 C  s                53     -0.920621   4 C  py        
   143      0.676667  14 S  s               142     -0.654469  14 S  s         
   108      0.608666  12 N  s                37      0.543459   3 C  px        
   124     -0.521176  13 S  s               131     -0.518935  13 S  px        
   141     -0.463694  14 S  s                48     -0.451072   4 C  s         

 Vector   57  Occ=0.000000D+00  E= 3.974080D-01
              MO Center=  6.9D-01,  9.7D-02, -1.9D-02, r^2= 5.9D+00
   Bfn.  Coefficient  Atom+Function         Bfn.  Coefficient  Atom+Function  
  ----- ------------  ---------------      ----- ------------  ---------------
    53      1.142726   4 C  py               18     -0.906555   2 C  s         
    23      0.831938   2 C  py               38     -0.811000   3 C  py        
    48      0.660493   4 C  s               108     -0.547075  12 N  s         
    37      0.472562   3 C  px               24      0.460472   2 C  pz        
    33      0.410499   3 C  s                52      0.402056   4 C  px        

 Vector   58  Occ=0.000000D+00  E= 4.026846D-01
              MO Center=  8.8D-01, -8.5D-02,  3.9D-01, r^2= 4.1D+00
   Bfn.  Coefficient  Atom+Function         Bfn.  Coefficient  Atom+Function  
  ----- ------------  ---------------      ----- ------------  ---------------
   124      0.768637  13 S  s                76     -0.518920   8 H  s         
   108      0.516735  12 N  s               123     -0.401536  13 S  s         
    39     -0.389852   3 C  pz               37      0.387682   3 C  px        
    22     -0.383936   2 C  px              131      0.382785  13 S  px        
   136     -0.367490  13 S  dxz              38      0.359180   3 C  py        

 Vector   59  Occ=0.000000D+00  E= 4.367777D-01
              MO Center= -1.5D-02,  9.2D-01, -9.1D-02, r^2= 7.5D+00
   Bfn.  Coefficient  Atom+Function         Bfn.  Coefficient  Atom+Function  
  ----- ------------  ---------------      ----- ------------  ---------------
    48     -0.788583   4 C  s                38     -0.770913   3 C  py        
    18      0.733932   2 C  s               131     -0.680388  13 S  px        
    52     -0.603724   4 C  px                8      0.591289   1 C  py        
    24     -0.587058   2 C  pz              143     -0.498359  14 S  s         
    33      0.443389   3 C  s                93      0.435930  11 N  s         

 Vector   60  Occ=0.000000D+00  E= 4.444074D-01
              MO Center= -2.7D-01,  1.7D+00,  8.4D-02, r^2= 7.1D+00
   Bfn.  Coefficient  Atom+Function         Bfn.  Coefficient  Atom+Function  
  ----- ------------  ---------------      ----- ------------  ---------------
   124      1.030521  13 S  s                38      0.695534   3 C  py        
     7     -0.596588   1 C  px               66     -0.580712   6 H  s         
   143      0.563055  14 S  s               131      0.510992  13 S  px        
    53      0.477463   4 C  py               52      0.462101   4 C  px        
   132      0.455151  13 S  py               48      0.451039   4 C  s         

 Vector   61  Occ=0.000000D+00  E= 4.486846D-01
              MO Center= -4.6D-01,  2.5D+00, -2.5D-01, r^2= 5.7D+00
   Bfn.  Coefficient  Atom+Function         Bfn.  Coefficient  Atom+Function  
  ----- ------------  ---------------      ----- ------------  ---------------
     9      0.825978   1 C  pz                6     -0.673489   1 C  pz        
    18     -0.518870   2 C  s                53      0.517549   4 C  py        
    23      0.483554   2 C  py              130     -0.443717  13 S  pz        
    48      0.437829   4 C  s                52      0.409072   4 C  px        
    66      0.380424   6 H  s               133      0.377791  13 S  pz        

 Vector   62  Occ=0.000000D+00  E= 4.621522D-01
              MO Center= -6.1D-01, -1.3D-01, -2.6D-01, r^2= 6.2D+00
   Bfn.  Coefficient  Atom+Function         Bfn.  Coefficient  Atom+Function  
  ----- ------------  ---------------      ----- ------------  ---------------
   131     -0.565474  13 S  px              128      0.528868  13 S  px        
    93      0.485340  11 N  s                48      0.456131   4 C  s         
   150     -0.437592  14 S  px                7     -0.404171   1 C  px        
   133     -0.397160  13 S  pz              147      0.389104  14 S  px        
    52     -0.364163   4 C  px              130      0.365981  13 S  pz        

 Vector   63  Occ=0.000000D+00  E= 4.744406D-01
              MO Center=  2.0D-01, -9.4D-01,  3.2D-02, r^2= 6.1D+00
   Bfn.  Coefficient  Atom+Function         Bfn.  Coefficient  Atom+Function  
  ----- ------------  ---------------      ----- ------------  ---------------
    37      0.862827   3 C  px               53      0.811046   4 C  py        
    23      0.647018   2 C  py              150      0.627900  14 S  px        
    33     -0.566361   3 C  s                52      0.558993   4 C  px        
   124     -0.535225  13 S  s                22      0.461154   2 C  px        
   133     -0.439667  13 S  pz               86     -0.404910  10 H  s         

 Vector   64  Occ=0.000000D+00  E= 4.820962D-01
              MO Center= -6.8D-01, -1.6D+00, -6.1D-02, r^2= 7.2D+00
   Bfn.  Coefficient  Atom+Function         Bfn.  Coefficient  Atom+Function  
  ----- ------------  ---------------      ----- ------------  ---------------
    52      1.177999   4 C  px              151      0.975382  14 S  py        
   150      0.796691  14 S  px               53      0.674755   4 C  py        
    48     -0.609916   4 C  s               148     -0.586167  14 S  py        
    37      0.524490   3 C  px               38      0.498285   3 C  py        
   143      0.485449  14 S  s               131     -0.419670  13 S  px        

 Vector   65  Occ=0.000000D+00  E= 4.853900D-01
              MO Center= -4.9D-01,  3.2D+00, -7.1D-02, r^2= 4.4D+00
   Bfn.  Coefficient  Atom+Function         Bfn.  Coefficient  Atom+Function  
  ----- ------------  ---------------      ----- ------------  ---------------
     3      0.786641   1 C  s                61     -0.762367   5 H  s         
    67      0.760437   6 H  s                 7      0.645773   1 C  px        
   132     -0.595621  13 S  py              124     -0.556841  13 S  s         
    66     -0.491190   6 H  s                22      0.407107   2 C  px        
   123      0.392316  13 S  s               122      0.289746  13 S  s         

 Vector   66  Occ=0.000000D+00  E= 5.089519D-01
              MO Center=  4.7D-01, -3.5D-01,  3.0D-01, r^2= 6.5D+00
   Bfn.  Coefficient  Atom+Function         Bfn.  Coefficient  Atom+Function  
  ----- ------------  ---------------      ----- ------------  ---------------
    18      1.062811   2 C  s               143      0.895391  14 S  s         
   124     -0.832882  13 S  s                52      0.808101   4 C  px        
    37      0.795312   3 C  px               87     -0.442311  10 H  s         
    24     -0.434747   2 C  pz               33     -0.415354   3 C  s         
    82     -0.410978   9 H  s               142     -0.411048  14 S  s         

 Vector   67  Occ=0.000000D+00  E= 5.234471D-01
              MO Center= -1.0D-02, -1.4D+00,  8.1D-02, r^2= 5.5D+00
   Bfn.  Coefficient  Atom+Function         Bfn.  Coefficient  Atom+Function  
  ----- ------------  ---------------      ----- ------------  ---------------
    22      0.909806   2 C  px               52     -0.889591   4 C  px        
   152      0.565722  14 S  pz               53      0.536915   4 C  py        
    48      0.523726   4 C  s               149     -0.493753  14 S  pz        
   151     -0.489081  14 S  py               39     -0.439307   3 C  pz        
    49      0.394916   4 C  px               76     -0.368355   8 H  s         

 Vector   68  Occ=0.000000D+00  E= 5.367286D-01
              MO Center= -7.7D-02,  5.4D-02, -5.0D-02, r^2= 7.4D+00
   Bfn.  Coefficient  Atom+Function         Bfn.  Coefficient  Atom+Function  
  ----- ------------  ---------------      ----- ------------  ---------------
    48      0.832281   4 C  s                23      0.687921   2 C  py        
   133      0.565650  13 S  pz               22      0.504563   2 C  px        
   152     -0.497038  14 S  pz              130     -0.447805  13 S  pz        
     9     -0.435961   1 C  pz                7     -0.424945   1 C  px        
   124     -0.406593  13 S  s                24     -0.398147   2 C  pz        

 Vector   69  Occ=0.000000D+00  E= 5.465526D-01
              MO Center= -1.7D-01, -4.1D-01, -4.8D-03, r^2= 6.6D+00
   Bfn.  Coefficient  Atom+Function         Bfn.  Coefficient  Atom+Function  
  ----- ------------  ---------------      ----- ------------  ---------------
    54      0.933487   4 C  pz               51     -0.611804   4 C  pz        
   133     -0.570053  13 S  pz              152     -0.550568  14 S  pz        
   130      0.490592  13 S  pz              108      0.472714  12 N  s         
    18     -0.437922   2 C  s                52     -0.396291   4 C  px        
   155      0.365661  14 S  dxz             131      0.347175  13 S  px        

 Vector   70  Occ=0.000000D+00  E= 5.673495D-01
              MO Center= -1.6D-01,  1.2D+00, -3.2D-02, r^2= 8.3D+00
   Bfn.  Coefficient  Atom+Function         Bfn.  Coefficient  Atom+Function  
  ----- ------------  ---------------      ----- ------------  ---------------
    48      0.716369   4 C  s                77      0.706234   8 H  s         
    24     -0.603747   2 C  pz              131     -0.598680  13 S  px        
    23      0.591741   2 C  py               39      0.577092   3 C  pz        
     7      0.477967   1 C  px                5      0.445427   1 C  py        
   148      0.424959  14 S  py              151     -0.415050  14 S  py        

 Vector   71  Occ=0.000000D+00  E= 5.688949D-01
              MO Center= -2.7D-01, -1.7D+00, -6.4D-02, r^2= 5.4D+00
   Bfn.  Coefficient  Atom+Function         Bfn.  Coefficient  Atom+Function  
  ----- ------------  ---------------      ----- ------------  ---------------
    53     -0.937961   4 C  py              150     -0.928982  14 S  px        
    18      0.900754   2 C  s               143     -0.618777  14 S  s         
   147      0.588345  14 S  px               24     -0.525160   2 C  pz        
    33     -0.496304   3 C  s                77      0.479680   8 H  s         
   152      0.472638  14 S  pz              149     -0.444032  14 S  pz        

 Vector   72  Occ=0.000000D+00  E= 5.804572D-01
              MO Center=  3.4D-01,  4.8D-01, -8.7D-02, r^2= 5.9D+00
   Bfn.  Coefficient  Atom+Function         Bfn.  Coefficient  Atom+Function  
  ----- ------------  ---------------      ----- ------------  ---------------
   124      1.274818  13 S  s                77     -1.075134   8 H  s         
    39     -0.854254   3 C  pz               22      0.735950   2 C  px        
    37      0.697832   3 C  px              138      0.677572  13 S  dyz       
    48      0.640787   4 C  s                52      0.628115   4 C  px        
   123     -0.577050  13 S  s                38      0.510722   3 C  py        

 Vector   73  Occ=0.000000D+00  E= 5.875607D-01
              MO Center=  1.1D-01, -6.9D-01,  2.5D-01, r^2= 6.2D+00
   Bfn.  Coefficient  Atom+Function         Bfn.  Coefficient  Atom+Function  
  ----- ------------  ---------------      ----- ------------  ---------------
    23      1.440711   2 C  py              124     -0.959676  13 S  s         
    18     -0.884689   2 C  s                72     -0.867654   7 H  s         
    37     -0.807166   3 C  px               22     -0.737400   2 C  px        
    53      0.697426   4 C  py               24      0.685126   2 C  pz        
    33      0.666269   3 C  s                48      0.603793   4 C  s         

 Vector   74  Occ=0.000000D+00  E= 6.022345D-01
              MO Center=  5.1D-01,  4.0D-01,  3.4D-01, r^2= 5.8D+00
   Bfn.  Coefficient  Atom+Function         Bfn.  Coefficient  Atom+Function  
  ----- ------------  ---------------      ----- ------------  ---------------
    82      0.924729   9 H  s                72     -0.762736   7 H  s         
    39     -0.693230   3 C  pz               77     -0.655286   8 H  s         
    24      0.645039   2 C  pz              138     -0.637749  13 S  dyz       
   124      0.601086  13 S  s               136     -0.570024  13 S  dxz       
    18      0.531056   2 C  s                81     -0.464486   9 H  s         

 Vector   75  Occ=0.000000D+00  E= 6.177789D-01
              MO Center= -6.8D-02,  2.5D-02,  1.9D-02, r^2= 8.6D+00
   Bfn.  Coefficient  Atom+Function         Bfn.  Coefficient  Atom+Function  
  ----- ------------  ---------------      ----- ------------  ---------------
    18      0.908339   2 C  s                52     -0.904573   4 C  px        
    48     -0.833965   4 C  s                39     -0.776544   3 C  pz        
    77     -0.737550   8 H  s                82      0.728558   9 H  s         
   132      0.716647  13 S  py               67     -0.574041   6 H  s         
   157      0.569332  14 S  dyz              53     -0.522054   4 C  py        

 Vector   76  Occ=0.000000D+00  E= 6.224847D-01
              MO Center= -3.4D-01,  3.1D+00, -4.2D-02, r^2= 6.1D+00
   Bfn.  Coefficient  Atom+Function         Bfn.  Coefficient  Atom+Function  
  ----- ------------  ---------------      ----- ------------  ---------------
     7      1.866341   1 C  px               67      1.571001   6 H  s         
    62     -1.292386   5 H  s                 4     -0.802769   1 C  px        
    82      0.582481   9 H  s                48     -0.491401   4 C  s         
    52     -0.461224   4 C  px                9      0.419638   1 C  pz        
    39     -0.396508   3 C  pz               37     -0.329676   3 C  px        

 Vector   77  Occ=0.000000D+00  E= 6.370978D-01
              MO Center= -2.1D-01, -1.3D+00,  4.5D-01, r^2= 4.9D+00
   Bfn.  Coefficient  Atom+Function         Bfn.  Coefficient  Atom+Function  
  ----- ------------  ---------------      ----- ------------  ---------------
    48      1.704812   4 C  s                24      1.445372   2 C  pz        
    53      1.351727   4 C  py               52      1.328777   4 C  px        
    72     -1.303307   7 H  s               143      1.083916  14 S  s         
    18     -1.066809   2 C  s                23      0.683435   2 C  py        
   108     -0.641933  12 N  s               154      0.610326  14 S  dxy       

 Vector   78  Occ=0.000000D+00  E= 6.440369D-01
              MO Center=  1.7D-01, -8.1D-01,  1.7D-01, r^2= 6.2D+00
   Bfn.  Coefficient  Atom+Function         Bfn.  Coefficient  Atom+Function  
  ----- ------------  ---------------      ----- ------------  ---------------
   124     -0.882926  13 S  s                77     -0.852658   8 H  s         
    72      0.839514   7 H  s                18     -0.748396   2 C  s         
   155      0.732425  14 S  dxz             157     -0.662651  14 S  dyz       
    48      0.648647   4 C  s                38      0.628699   3 C  py        
    39     -0.615515   3 C  pz               23      0.545090   2 C  py        

 Vector   79  Occ=0.000000D+00  E= 6.735926D-01
              MO Center=  1.3D+00, -2.1D-01,  7.9D-02, r^2= 5.4D+00
   Bfn.  Coefficient  Atom+Function         Bfn.  Coefficient  Atom+Function  
  ----- ------------  ---------------      ----- ------------  ---------------
    37      1.640715   3 C  px               22      1.471442   2 C  px        
    82     -1.428033   9 H  s               124      1.269407  13 S  s         
    18      1.258737   2 C  s                48     -1.247804   4 C  s         
    52     -1.097091   4 C  px              108      0.765685  12 N  s         
    23     -0.613416   2 C  py               77     -0.569455   8 H  s         

 Vector   80  Occ=0.000000D+00  E= 6.823197D-01
              MO Center= -2.5D-01, -8.3D-01,  1.7D-01, r^2= 6.1D+00
   Bfn.  Coefficient  Atom+Function         Bfn.  Coefficient  Atom+Function  
  ----- ------------  ---------------      ----- ------------  ---------------
    52      1.345576   4 C  px               48      1.154173   4 C  s         
    22     -0.984223   2 C  px               33      0.732318   3 C  s         
    38      0.734833   3 C  py              143      0.629261  14 S  s         
   108     -0.617584  12 N  s               112      0.593969  12 N  px        
    53      0.581269   4 C  py              124     -0.580461  13 S  s         

 Vector   81  Occ=0.000000D+00  E= 6.909827D-01
              MO Center=  9.6D-01, -6.9D-01,  5.6D-02, r^2= 4.9D+00
   Bfn.  Coefficient  Atom+Function         Bfn.  Coefficient  Atom+Function  
  ----- ------------  ---------------      ----- ------------  ---------------
    22      1.270124   2 C  px               24      1.153425   2 C  pz        
   124      1.146851  13 S  s                39     -1.132577   3 C  pz        
    38      0.755347   3 C  py               72     -0.756410   7 H  s         
    77     -0.710606   8 H  s               132     -0.516416  13 S  py        
    23     -0.454114   2 C  py              133      0.455381  13 S  pz        

[...]
          31     0.00029    -0.00041    -0.00036     0.00336     0.06304     0.00688
          32    -0.00041    -0.00027    -0.00025     0.00291     0.03636     0.00223
          33    -0.00090    -0.00150     0.00008     0.00256     0.05153     0.00426
          34     0.03027    -0.05133    -0.02671     0.08036    -0.00324    -0.02562
          35    -0.06686     0.02677     0.02229    -0.01938     0.00127    -0.02954
          36    -0.01381     0.03397    -0.04518    -0.03693     0.00148     0.00303
          37     0.00807     0.00282    -0.00103     0.00451    -0.00494    -0.00203
          38    -0.00417     0.00136     0.00122    -0.00091     0.00340     0.00139
          39     0.00028     0.00660    -0.00302     0.00555    -0.00457     0.00596
          40    -0.01066     0.02062     0.00203    -0.01530     0.00000     0.01045
          41    -0.00654     0.02036     0.00210    -0.01847     0.00037     0.00686
          42     0.00164     0.00202     0.00072     0.00082     0.00017    -0.00165

                   31          32          33          34          35          36
 
 P.Frequency     1275.12     1285.80     1456.91     1471.53     1531.50     1672.67
 
           1     0.00152     0.00028    -0.00866    -0.00011     0.00167    -0.07642
           2    -0.00158     0.00558     0.00414    -0.00042    -0.00507     0.18356
           3     0.00144     0.00035    -0.00694    -0.00010     0.00107    -0.05359
           4    -0.05767    -0.00516     0.00037     0.00822     0.01052     0.00182
           5     0.04049    -0.06165     0.00530     0.00289     0.01573     0.00746
           6     0.00357    -0.01873     0.00081    -0.00166     0.00003     0.00151
           7     0.07609    -0.07477     0.00027    -0.07252     0.01170     0.00055
           8     0.04658     0.09444    -0.00142    -0.04764     0.02817    -0.00038
           9     0.00469     0.06405    -0.00003     0.01115     0.00457     0.00043
          10    -0.12636     0.01306     0.00282    -0.07559    -0.16433    -0.00378
          11    -0.03253     0.09655    -0.00045    -0.02641    -0.05055    -0.00211
          12     0.03920     0.02335    -0.00140     0.01877     0.04405    -0.00000
          13    -0.00177    -0.00917    -0.42082     0.00060    -0.01154     0.16399
          14    -0.00017     0.01431     0.38243    -0.00122     0.00632    -0.02754
          15     0.00178    -0.00766    -0.31941     0.00077    -0.00762     0.12791
          16     0.00227    -0.00109     0.02586    -0.00001     0.00306    -0.11211
          17    -0.00876    -0.00195     0.65713     0.00028     0.01605    -0.17925
          18    -0.00077     0.00019     0.04736     0.00003     0.00294    -0.09656
          19     0.25179     0.06998     0.00610    -0.03082    -0.02003     0.00704
          20    -0.10782     0.06889    -0.00829    -0.01273    -0.04645    -0.01442
          21     0.03910    -0.04302     0.00341    -0.00008     0.01292     0.00531
          22     0.02752     0.24503     0.00118     0.51656    -0.21153    -0.00688
          23     0.15379    -0.37764     0.00738     0.13936    -0.18154    -0.00245
          24     0.05718    -0.18463     0.00586     0.24954    -0.18156    -0.00245
          25     0.09807     0.24361     0.00152     0.27077    -0.08921    -0.00149
          26     0.13913    -0.37876     0.00833     0.34955    -0.28857    -0.00451
          27    -0.01631    -0.25605    -0.00241    -0.39134     0.14091     0.00268
          28     0.48605     0.18244     0.00463    -0.17802    -0.22723    -0.00479
          29     0.23097     0.06031     0.00418    -0.13826    -0.21462    -0.00440
          30    -0.12004    -0.04647    -0.00038     0.01845     0.00780     0.00020
          31    -0.00069    -0.00088     0.03444     0.00051     0.00013     0.06144
          32     0.00061    -0.00135    -0.08680     0.00032     0.00100    -0.14918
          33    -0.00070    -0.00063     0.02421     0.00033    -0.00033     0.04332
          34    -0.02116     0.01980    -0.00284     0.06359     0.12947     0.00223
          35    -0.10138    -0.04443    -0.00096     0.02484     0.03447     0.00073
          36    -0.02695    -0.02106     0.00079    -0.01463    -0.03600    -0.00059
          37     0.00156     0.00156     0.00031    -0.00039    -0.00102    -0.00048
          38    -0.00222    -0.00031     0.00259    -0.00056    -0.00039     0.00129
          39    -0.00222     0.00112     0.00022     0.00000    -0.00065    -0.00050
          40     0.02072    -0.00789    -0.00018     0.00661     0.01451     0.00036
          41     0.01364    -0.01090    -0.00013     0.00578     0.01160     0.00030
          42    -0.00279    -0.00058     0.00005    -0.00044    -0.00132     0.00001

                   37          38          39          40          41          42
 
 P.Frequency     3037.14     3047.96     3106.11     3114.71     3155.25     3572.97
 
           1     0.04120    -0.00017    -0.00005    -0.00008    -0.05786     0.00001
           2    -0.04138     0.00032    -0.00004    -0.00006    -0.05414     0.00000
           3     0.03114    -0.00012    -0.00003    -0.00006    -0.04823     0.00000
           4    -0.00004     0.00134     0.00223     0.00217    -0.00003    -0.00026
           5    -0.00000     0.00052    -0.00984    -0.00983     0.00008    -0.00066
           6    -0.00002     0.00334    -0.05653    -0.05713     0.00026    -0.00018
           7    -0.00032    -0.05767     0.01446    -0.01990    -0.00001    -0.00100
           8    -0.00012    -0.02975    -0.02371     0.02151    -0.00003    -0.00306
           9     0.00000    -0.00171     0.05988    -0.05775     0.00003    -0.00061
          10     0.00006     0.00211     0.00094     0.00037     0.00001     0.00339
          11     0.00007     0.00063     0.00049     0.00058     0.00001     0.00099
          12     0.00005    -0.00062     0.00026    -0.00038     0.00001    -0.00089
          13     0.20026    -0.00128     0.00103     0.00107     0.36825     0.00006
          14     0.34838    -0.00192     0.00170     0.00208     0.69627    -0.00002
          15     0.17340    -0.00112     0.00037     0.00052     0.32134    -0.00007
          16    -0.67464     0.00320     0.00045     0.00082     0.31690     0.00002
          17     0.09499    -0.00057    -0.00053    -0.00045    -0.05667    -0.00001
          18    -0.53311     0.00273     0.00077     0.00083     0.24990     0.00006
          19     0.00003    -0.00130    -0.01196    -0.01646     0.00022    -0.00106
          20     0.00064    -0.00802     0.10631     0.10883    -0.00072     0.00236
          21    -0.00041    -0.04434     0.66056     0.67138    -0.00319     0.00161
          22     0.00048     0.08962     0.10280    -0.09802     0.00006    -0.00034
          23     0.00170     0.32075     0.30552    -0.27887     0.00021    -0.00003
          24    -0.00236    -0.48660    -0.45262     0.41510    -0.00036     0.00007
          25     0.00302     0.56971    -0.28823     0.32374     0.00004    -0.00060
          26     0.00022     0.03717    -0.02522     0.02428    -0.00001     0.00014
          27     0.00258     0.51586    -0.24656     0.27247     0.00004    -0.00006
          28     0.00003    -0.00467    -0.00203    -0.00080     0.00000     0.44120
          29    -0.00006    -0.00182     0.00210     0.00147    -0.00002    -0.75022
          30    -0.00004     0.00128    -0.00028     0.00056    -0.00003    -0.40312
          31    -0.00108     0.00004    -0.00002    -0.00009    -0.00009    -0.00004
          32     0.00305    -0.00004     0.00006    -0.00005    -0.00107     0.00004
          33    -0.00074    -0.00005     0.00003    -0.00002    -0.00012     0.00001
          34    -0.00000    -0.00033    -0.00064    -0.00023     0.00002    -0.03351
          35    -0.00003    -0.00041     0.00037    -0.00001    -0.00002     0.05602
          36    -0.00001     0.00009    -0.00038     0.00066    -0.00000     0.03027
          37    -0.00004     0.00002    -0.00005     0.00005     0.00016     0.00001
          38     0.00019    -0.00001    -0.00004    -0.00006     0.00062     0.00001
          39    -0.00003     0.00001    -0.00002     0.00011     0.00014     0.00003
          40    -0.00000    -0.00013    -0.00001     0.00001    -0.00000     0.00003
          41    -0.00002    -0.00007    -0.00002     0.00000     0.00000     0.00003
          42     0.00000     0.00002     0.00002     0.00000    -0.00000    -0.00000



 ----------------------------------------------------------------------------
 Normal Eigenvalue ||    Projected Derivative Dipole Moments (debye/angs)
  Mode   [cm**-1]  ||      [d/dqX]             [d/dqY]           [d/dqZ]
 ------ ---------- || ------------------ ------------------ -----------------
    1       -0.000 ||       0.020              -0.030            -0.002
    2       -0.000 ||       0.048              -0.011             0.186
    3       -0.000 ||      -0.064               0.089            -0.011
    4       -0.000 ||      -0.034              -0.025            -0.234
    5       -0.000 ||       0.038              -0.061            -0.015
    6       -0.000 ||       0.047              -0.068             0.000
    7       19.471 ||       0.030              -0.117            -0.024
    8       81.987 ||       0.040               0.229             0.065
    9      117.977 ||      -0.223               0.084             0.366
   10      124.367 ||       0.101               0.086            -0.211
   11      185.826 ||      -0.019              -0.120             0.023
   12      283.082 ||       0.268              -0.337             0.473
   13      360.754 ||       0.081               0.046            -0.046
   14      428.477 ||       0.008              -0.217            -0.341
   15      487.947 ||       0.522              -0.524             1.095
   16      548.660 ||       0.133              -0.041             0.340
   17      576.141 ||       0.222               0.364            -0.268
   18      635.520 ||      -0.190               0.587            -0.146
   19      696.141 ||       0.131               0.014            -0.167
   20      735.987 ||       0.209               0.102             0.254
   21      908.956 ||      -0.048               0.098            -0.052
   22      964.810 ||       0.196               0.609             0.164
   23     1002.938 ||      -0.399              -0.095             0.519
   24     1004.870 ||      -0.135               0.275             0.118
   25     1035.515 ||       0.245               0.282            -0.036
   26     1121.711 ||      -0.027              -0.466             0.136
   27     1128.670 ||       0.146              -0.075             0.028
   28     1141.562 ||      -0.323               0.307             0.287
   29     1178.504 ||      -0.217               0.565            -0.197
   30     1224.575 ||      -0.041              -0.807             0.179
   31     1275.119 ||      -0.827              -0.302             0.081
   32     1285.798 ||       0.870               0.791            -0.163
   33     1456.915 ||      -0.279              -0.005            -0.276
   34     1471.526 ||      -1.222              -0.889             0.131
   35     1531.503 ||      -2.369              -1.188             0.517
   36     1672.669 ||      -0.302              -0.003            -0.204
   37     3037.141 ||       0.421              -0.657             0.304
   38     3047.959 ||      -0.886              -0.471            -0.060
   39     3106.106 ||       0.083               0.005             0.245
   40     3114.709 ||      -0.194               0.330            -0.487
   41     3155.248 ||      -0.399              -0.207            -0.331
   42     3572.975 ||       0.737              -0.378            -0.402
 ----------------------------------------------------------------------------



  
  
 ----------------------------------------------------------------------------
 Normal Eigenvalue ||           Projected Infra Red Intensities
  Mode   [cm**-1]  || [atomic units] [(debye/angs)**2] [(KM/mol)] [arbitrary]
 ------ ---------- || -------------- ----------------- ---------- -----------
    1       -0.000 ||    0.000056           0.001         0.054       0.025
    2       -0.000 ||    0.001608           0.037         1.568       0.711
    3       -0.000 ||    0.000524           0.012         0.510       0.232
    4       -0.000 ||    0.002442           0.056         2.381       1.080
    5       -0.000 ||    0.000233           0.005         0.227       0.103
    6       -0.000 ||    0.000292           0.007         0.285       0.129
    7       19.471 ||    0.000659           0.015         0.642       0.291
    8       81.987 ||    0.002535           0.058         2.472       1.121
    9      117.977 ||    0.008290           0.191         8.081       3.667
   10      124.367 ||    0.002682           0.062         2.615       1.186
   11      185.826 ||    0.000662           0.015         0.645       0.293
   12      283.082 ||    0.017710           0.409        17.265       7.833
   13      360.754 ||    0.000463           0.011         0.451       0.205
   14      428.477 ||    0.007077           0.163         6.899       3.130
   15      487.947 ||    0.075668           1.746        73.765      33.469
   16      548.660 ||    0.005863           0.135         5.716       2.593
   17      576.141 ||    0.010984           0.253        10.707       4.858
   18      635.520 ||    0.017408           0.402        16.971       7.700
   19      696.141 ||    0.001961           0.045         1.911       0.867
   20      735.987 ||    0.005146           0.119         5.017       2.276
   21      908.956 ||    0.000641           0.015         0.625       0.283
   22      964.810 ||    0.018897           0.436        18.422       8.358
   23     1002.938 ||    0.018953           0.437        18.477       8.383
   24     1004.870 ||    0.004686           0.108         4.568       2.072
   25     1035.515 ||    0.006095           0.141         5.942       2.696
   26     1121.711 ||    0.010226           0.236         9.969       4.523
   27     1128.670 ||    0.001200           0.028         1.169       0.531
   28     1141.562 ||    0.012188           0.281        11.882       5.391
   29     1178.504 ||    0.017574           0.405        17.132       7.773
   30     1224.575 ||    0.029676           0.685        28.930      13.126
   31     1275.119 ||    0.033847           0.781        32.996      14.971
   32     1285.798 ||    0.061066           1.409        59.530      27.010
   33     1456.915 ||    0.006690           0.154         6.522       2.959
   34     1471.526 ||    0.099796           2.302        97.286      44.141
   35     1531.503 ||    0.315989           7.290       308.041     139.766
   36     1672.669 ||    0.005775           0.133         5.629       2.554
   37     3037.141 ||    0.030409           0.702        29.644      13.450
   38     3047.959 ||    0.043795           1.010        42.693      19.371
   39     3106.106 ||    0.002906           0.067         2.833       1.285
   40     3114.709 ||    0.016627           0.384        16.208       7.354
   41     3155.248 ||    0.013506           0.312        13.166       5.974
   42     3572.975 ||    0.036751           0.848        35.827      16.255
 ----------------------------------------------------------------------------



 vib:animation  F

 Task  times  cpu:      386.4s     wall:      386.4s


                                NWChem Input Module
                                -------------------


 Summary of allocated global arrays
-----------------------------------
  No active global arrays


MA_summarize_allocated_blocks: starting scan ...
MA_summarize_allocated_blocks: scan completed: 0 heap blocks, 0 stack blocks
MA usage statistics:

	allocation statistics:
					      heap	     stack
					      ----	     -----
	current number of blocks	         0	         0
	maximum number of blocks	        25	        54
	current total bytes		         0	         0
	maximum total bytes		 655033168	  86190680
	maximum total K-bytes		    655034	     86191
	maximum total M-bytes		       656	        87


                                     CITATION
                                     --------
                Please cite the following reference when publishing
                           results obtained with NWChem:

          E. Apra, E. J. Bylaska, W. A. de Jong, N. Govind, K. Kowalski,
       T. P. Straatsma, M. Valiev, H. J. J. van Dam, Y. Alexeev, J. Anchell,
       V. Anisimov, F. W. Aquino, R. Atta-Fynn, J. Autschbach, N. P. Bauman,
     J. C. Becca, D. E. Bernholdt, K. Bhaskaran-Nair, S. Bogatko, P. Borowski,
         J. Boschen, J. Brabec, A. Bruner, E. Cauet, Y. Chen, G. N. Chuev,
      C. J. Cramer, J. Daily, M. J. O. Deegan, T. H. Dunning Jr., M. Dupuis,
   K. G. Dyall, G. I. Fann, S. A. Fischer, A. Fonari, H. Fruchtl, L. Gagliardi,
      J. Garza, N. Gawande, S. Ghosh, K. Glaesemann, A. W. Gotz, J. Hammond,
       V. Helms, E. D. Hermes, K. Hirao, S. Hirata, M. Jacquelin, L. Jensen,
   B. G. Johnson, H. Jonsson, R. A. Kendall, M. Klemm, R. Kobayashi, V. Konkov,
      S. Krishnamoorthy, M. Krishnan, Z. Lin, R. D. Lins, R. J. Littlefield,
      A. J. Logsdail, K. Lopata, W. Ma, A. V. Marenich, J. Martin del Campo,
   D. Mejia-Rodriguez, J. E. Moore, J. M. Mullin, T. Nakajima, D. R. Nascimento,
    J. A. Nichols, P. J. Nichols, J. Nieplocha, A. Otero-de-la-Roza, B. Palmer,
    A. Panyala, T. Pirojsirikul, B. Peng, R. Peverati, J. Pittner, L. Pollack,
   R. M. Richard, P. Sadayappan, G. C. Schatz, W. A. Shelton, D. W. Silverstein,
   D. M. A. Smith, T. A. Soares, D. Song, M. Swart, H. L. Taylor, G. S. Thomas,
            V. Tipparaju, D. G. Truhlar, K. Tsemekhman, T. Van Voorhis,
      A. Vazquez-Mayagoitia, P. Verma, O. Villa, A. Vishnu, K. D. Vogiatzis,
        D. Wang, J. H. Weare, M. J. Williamson, T. L. Windus, K. Wolinski,
        A. T. Wong, Q. Wu, C. Yang, Q. Yu, M. Zacharias, Z. Zhang, Y. Zhao,
                                and R. J. Harrison
                        "NWChem: Past, present, and future
                         J. Chem. Phys. 152, 184102 (2020)
                               doi:10.1063/5.0004997

                                      AUTHORS
                                      -------
  E. Apra, E. J. Bylaska, N. Govind, K. Kowalski, M. Valiev, D. Mejia-Rodriguez,
       A. Kunitsa, N. P. Bauman, A. Panyala, W. A. de Jong, T. P. Straatsma,
   H. J. J. van Dam, D. Wang, T. L. Windus, J. Hammond, J. Autschbach, A. Woods,
    K. Bhaskaran-Nair, J. Brabec, K. Lopata, S. A. Fischer, S. Krishnamoorthy,
     M. Jacquelin, W. Ma, M. Klemm, O. Villa, Y. Chen, V. Anisimov, F. Aquino,
     S. Hirata, M. T. Hackler, E. Hermes, L. Jensen, J. E. Moore, J. C. Becca,
      V. Konjkov, T. Risthaus, M. Malagoli, A. Marenich, A. Otero-de-la-Roza,
        J. Mullin, P. Nichols, R. Peverati, J. Pittner, Y. Zhao, P.-D. Fan,
        A. Fonari, M. J. Williamson, R. J. Harrison, J. R. Rehr, M. Dupuis,
     D. Silverstein, D. M. A. Smith, J. Nieplocha, V. Tipparaju, M. Krishnan,
     B. E. Van Kuiken, A. Vazquez-Mayagoitia, M. Swart, Q. Wu, T. Van Voorhis,
     A. A. Auer, M. Nooijen, L. D. Crosby, E. Brown, G. Cisneros, G. I. Fann,
   H. Fruchtl, J. Garza, K. Hirao, R. A. Kendall, J. A. Nichols, K. Tsemekhman,
    K. Wolinski, J. Anchell, D. E. Bernholdt, P. Borowski, T. Clark, D. Clerc,
   H. Dachsel, M. J. O. Deegan, K. Dyall, D. Elwood, E. Glendening, M. Gutowski,
   A. C. Hess, J. Jaffe, B. G. Johnson, J. Ju, R. Kobayashi, R. Kutteh, Z. Lin,
   R. Littlefield, X. Long, B. Meng, T. Nakajima, S. Niu, L. Pollack, M. Rosing,
   K. Glaesemann, G. Sandrone, M. Stave, H. Taylor, G. Thomas, J. H. van Lenthe,
                               A. T. Wong, Z. Zhang.

 Total times  cpu:      809.5s     wall:      809.5s
