 argument  1 = xyz54.in
                                         
                                         


             Northwest Computational Chemistry Package (NWChem) 7.2.3
             --------------------------------------------------------


                    Environmental Molecular Sciences Laboratory
                       Pacific Northwest National Laboratory
                                Richland, WA 99352

                              Copyright (c) 1994-2022
                       Pacific Northwest National Laboratory
                            Battelle Memorial Institute

             NWChem is an open-source computational chemistry package
                        distributed under the terms of the
                      Educational Community License (ECL) 2.0
             A copy of the license is included with this distribution
                              in the LICENSE.TXT file

                                  ACKNOWLEDGMENT
                                  --------------

            This software and its documentation were developed at the
            EMSL at Pacific Northwest National Laboratory, a multiprogram
            national laboratory, operated for the U.S. Department of Energy
            by Battelle under Contract Number DE-AC05-76RL01830. Support
            for this work was provided by the Department of Energy Office
            of Biological and Environmental Research, Office of Basic
            Energy Sciences, and the Office of Advanced Scientific Computing.


           Job information
           ---------------

    hostname        = gpu001
    program         = /home/rrichard/nwchem/bin/LINUX64/nwchem
    date            = Sat Jul 12 12:23:37 2025

    compiled        = Mon_Jul_07_13:04:19_2025
    source          = /home/rrichard/nwchem
    nwchem branch   = 7.2.3
    nwchem revision = v7.2.0-beta1-1473-g5687662257
    ga revision     = 5.9.2
    use scalapack   = T
    input           = xyz54.in
    prefix          = xyz54.
    data base       = ./xyz54.db
    status          = startup
    nproc           =        2
    time left       =     -1s



           Memory information
           ------------------

    heap     =    431126727 doubles =     3289.2 Mbytes
    stack    =    431126723 doubles =     3289.2 Mbytes
    global   =    246358129 doubles =     1879.6 Mbytes (distinct from heap & stack)
    total    =   1108611579 doubles =     8458.0 Mbytes
    verify   = yes
    hardfail = no 


           Directory information
           ---------------------

  0 permanent = .
  0 scratch   = .




                                NWChem Input Module
                                -------------------



 Scaling coordinates for geometry "geometry" by  1.889725989
 (inverse scale =  0.529177249)

 C1  symmetry detected

          ------
          auto-z
          ------
  autoz: The atoms group into disjoint clusters
 cluster   1:    1    2    3    4    5    6    7    8    9   10
 cluster   2:   11   12   13   14   15   16   17   18   19   20
     1 autoz failed with cvr_scaling = 1.2 changing to 1.3
  autoz: The atoms group into disjoint clusters
 cluster   1:    1    2    3    4    5    6    7    8    9   10
 cluster   2:   11   12   13   14   15   16   17   18   19   20
     2 autoz failed with cvr_scaling = 1.3 changing to 1.4
  autoz: The atoms group into disjoint clusters
 cluster   1:    1    2    3    4    5    6    7    8    9   10
 cluster   2:   11   12   13   14   15   16   17   18   19   20
     3 autoz failed with cvr_scaling = 1.4 changing to 1.5
  autoz: The atoms group into disjoint clusters
 cluster   1:    1    2    3    4    5    6    7    8    9   10
 cluster   2:   11   12   13   14   15   16   17   18   19   20
     4 autoz failed with cvr_scaling = 1.5 changing to 1.6
  autoz: The atoms group into disjoint clusters
 cluster   1:    1    2    3    4    5    6    7    8    9   10
 cluster   2:   11   12   13   14   15   16   17   18   19   20
     5 autoz failed with cvr_scaling = 1.6 changing to 1.7
  autoz: The atoms group into disjoint clusters
 cluster   1:    1    2    3    4    5    6    7    8    9   10
 cluster   2:   11   12   13   14   15   16   17   18   19   20
 Clusters   1   2 closest atoms are    9   18 r = 6.00 ... close but too far?

 AUTOZ failed to generate good internal coordinates.
 Cartesian coordinates will be used in optimizations.



                             Geometry "geometry" -> ""
                             -------------------------

 Output coordinates in angstroms (scale by  1.889725989 to convert to a.u.)

  No.       Tag          Charge          X              Y              Z
 ---- ---------------- ---------- -------------- -------------- --------------
    1 N                    7.0000    -1.19979525     3.44454761     0.52892393
    2 N                    7.0000     1.19972247     3.44434566     0.52912585
    3 C                    6.0000    -0.00006569     3.66639215     1.08054285
    4 C                    6.0000    -1.18540653     2.94425315    -0.71425158
    5 C                    6.0000     1.18546447     2.94406077    -0.71405349
    6 C                    6.0000     0.00005985     2.67294417    -1.38810329
    7 H                    1.0000    -0.00011668     4.07630313     2.09916058
    8 H                    1.0000    -2.16278721     2.75756876    -1.17844897
    9 H                    1.0000     2.16288107     2.75720878    -1.17808937
   10 H                    1.0000     0.00011119     2.26303231    -2.40672136
   11 N                    7.0000     1.20060370    -3.43953454    -0.52947364
   12 N                    7.0000    -1.19892389    -3.44106176    -0.53188416
   13 C                    6.0000     0.00153434    -3.65879321    -1.08357590
   14 C                    6.0000     1.18470809    -2.94702328     0.71678565
   15 C                    6.0000    -1.18616022    -2.94853082     0.71440516
   16 C                    6.0000    -0.00157951    -2.68077237     1.39122588
   17 H                    1.0000     0.00281947    -4.06234551    -2.10472348
   18 H                    1.0000     2.16152101    -2.76252980     1.18304948
   19 H                    1.0000    -2.16414449    -2.76527725     1.17869469
   20 H                    1.0000    -0.00286232    -2.27722263     2.41238284

      Atomic Mass 
      ----------- 

      N                 14.003070
      C                 12.000000
      H                  1.007825


 Effective nuclear repulsion energy (a.u.)     557.3485544429

            Nuclear Dipole moment (a.u.) 
            ----------------------------
        X                 Y               Z
 ---------------- ---------------- ----------------
     0.0000000000     0.0000000000    -0.0000000000


            XYZ format geometry
            -------------------
    20
 geometry
 N                    -1.19979525     3.44454761     0.52892393
 N                     1.19972247     3.44434566     0.52912585
 C                    -0.00006569     3.66639215     1.08054285
 C                    -1.18540653     2.94425315    -0.71425158
 C                     1.18546447     2.94406077    -0.71405349
 C                     0.00005985     2.67294417    -1.38810329
 H                    -0.00011668     4.07630313     2.09916058
 H                    -2.16278721     2.75756876    -1.17844897
 H                     2.16288107     2.75720878    -1.17808937
 H                     0.00011119     2.26303231    -2.40672136
 N                     1.20060370    -3.43953454    -0.52947364
 N                    -1.19892389    -3.44106176    -0.53188416
 C                     0.00153434    -3.65879321    -1.08357590
 C                     1.18470809    -2.94702328     0.71678565
 C                    -1.18616022    -2.94853082     0.71440516
 C                    -0.00157951    -2.68077237     1.39122588
 H                     0.00281947    -4.06234551    -2.10472348
 H                     2.16152101    -2.76252980     1.18304948
 H                    -2.16414449    -2.76527725     1.17869469
 H                    -0.00286232    -2.27722263     2.41238284

 ==============================================================================
                                internuclear distances
 ------------------------------------------------------------------------------
       center one      |      center two      | atomic units |  angstroms
 ------------------------------------------------------------------------------
    3 C                |   1 N                |     2.53029  |     1.33897
    3 C                |   2 N                |     2.53030  |     1.33898
    4 C                |   1 N                |     2.53251  |     1.34014
    5 C                |   2 N                |     2.53250  |     1.34014
    6 C                |   4 C                |     2.62734  |     1.39033
    6 C                |   5 C                |     2.62735  |     1.39034
    7 H                |   3 C                |     2.07492  |     1.09800
    8 H                |   4 C                |     2.07492  |     1.09800
    9 H                |   5 C                |     2.07490  |     1.09799
   10 H                |   6 C                |     2.07492  |     1.09800
   13 C                |  11 N                |     2.53031  |     1.33898
   13 C                |  12 N                |     2.53031  |     1.33898
   14 C                |  11 N                |     2.53250  |     1.34014
   15 C                |  12 N                |     2.53251  |     1.34014
   16 C                |  14 C                |     2.62736  |     1.39034
   16 C                |  15 C                |     2.62734  |     1.39033
   17 H                |  13 C                |     2.07491  |     1.09800
   18 H                |  14 C                |     2.07492  |     1.09800
   19 H                |  15 C                |     2.07492  |     1.09800
   20 H                |  16 C                |     2.07493  |     1.09801
 ------------------------------------------------------------------------------
                         number of included internuclear distances:         20
 ==============================================================================



 ==============================================================================
                                 internuclear angles
 ------------------------------------------------------------------------------
        center 1       |       center 2       |       center 3       |  degrees
 ------------------------------------------------------------------------------
    3 C                |   1 N                |   4 C                |   115.75
    3 C                |   2 N                |   5 C                |   115.75
    1 N                |   3 C                |   2 N                |   127.28
    1 N                |   3 C                |   7 H                |   116.36
    2 N                |   3 C                |   7 H                |   116.36
    1 N                |   4 C                |   6 C                |   122.11
    1 N                |   4 C                |   8 H                |   116.49
    6 C                |   4 C                |   8 H                |   121.39
    2 N                |   5 C                |   6 C                |   122.11
    2 N                |   5 C                |   9 H                |   116.49
    6 C                |   5 C                |   9 H                |   121.39
    4 C                |   6 C                |   5 C                |   117.00
    4 C                |   6 C                |  10 H                |   121.50
    5 C                |   6 C                |  10 H                |   121.50
   13 C                |  11 N                |  14 C                |   115.75
   13 C                |  12 N                |  15 C                |   115.75
   11 N                |  13 C                |  12 N                |   127.28
   11 N                |  13 C                |  17 H                |   116.36
   12 N                |  13 C                |  17 H                |   116.36
   11 N                |  14 C                |  16 C                |   122.11
   11 N                |  14 C                |  18 H                |   116.49
   16 C                |  14 C                |  18 H                |   121.39
   12 N                |  15 C                |  16 C                |   122.11
   12 N                |  15 C                |  19 H                |   116.49
   16 C                |  15 C                |  19 H                |   121.39
   14 C                |  16 C                |  15 C                |   117.00
   14 C                |  16 C                |  20 H                |   121.50
   15 C                |  16 C                |  20 H                |   121.50
 ------------------------------------------------------------------------------
                            number of included internuclear angles:         28
 ==============================================================================





 Summary of "ao basis" -> "" (cartesian)
 ------------------------------------------------------------------------------
       Tag                 Description            Shells   Functions and Types
 ---------------- ------------------------------  ------  ---------------------
 *                          cc-pvdz                   on all atoms 




                           NWChem Geometry Optimization
                           ----------------------------


 maximum gradient threshold         (gmax) =   0.000450
 rms gradient threshold             (grms) =   0.000300
 maximum cartesian step threshold   (xmax) =   0.001800
 rms cartesian step threshold       (xrms) =   0.001200
 fixed trust radius                (trust) =   0.300000
 maximum step size to saddle      (sadstp) =   0.100000
 energy precision                  (eprec) =   5.0D-06
 maximum number of steps          (nptopt) =   40
 initial hessian option           (inhess) =    0
 line search option               (linopt) =    1
 hessian update option            (modupd) =    1
 saddle point option              (modsad) =    0
 initial eigen-mode to follow     (moddir) =    0
 initial variable to follow       (vardir) =    0
 follow first negative mode     (firstneg) =    T
 apply conjugacy                    (opcg) =    F
 source of zmatrix                         =           


          -------------------
          Energy Minimization
          -------------------


 Using diagonal initial Hessian 

          --------
          Step   0
          --------


                         Geometry "geometry" -> "geometry"
                         ---------------------------------

 Output coordinates in angstroms (scale by  1.889725989 to convert to a.u.)

  No.       Tag          Charge          X              Y              Z
 ---- ---------------- ---------- -------------- -------------- --------------
    1 N                    7.0000    -1.19979525     3.44454761     0.52892393
    2 N                    7.0000     1.19972247     3.44434566     0.52912585
    3 C                    6.0000    -0.00006569     3.66639215     1.08054285
    4 C                    6.0000    -1.18540653     2.94425315    -0.71425158
    5 C                    6.0000     1.18546447     2.94406077    -0.71405349
    6 C                    6.0000     0.00005985     2.67294417    -1.38810329
    7 H                    1.0000    -0.00011668     4.07630313     2.09916058
    8 H                    1.0000    -2.16278721     2.75756876    -1.17844897
    9 H                    1.0000     2.16288107     2.75720878    -1.17808937
   10 H                    1.0000     0.00011119     2.26303231    -2.40672136
   11 N                    7.0000     1.20060370    -3.43953454    -0.52947364
   12 N                    7.0000    -1.19892389    -3.44106176    -0.53188416
   13 C                    6.0000     0.00153434    -3.65879321    -1.08357590
   14 C                    6.0000     1.18470809    -2.94702328     0.71678565
   15 C                    6.0000    -1.18616022    -2.94853082     0.71440516
   16 C                    6.0000    -0.00157951    -2.68077237     1.39122588
   17 H                    1.0000     0.00281947    -4.06234551    -2.10472348
   18 H                    1.0000     2.16152101    -2.76252980     1.18304948
   19 H                    1.0000    -2.16414449    -2.76527725     1.17869469
   20 H                    1.0000    -0.00286232    -2.27722263     2.41238284

      Atomic Mass 
      ----------- 

      N                 14.003070
      C                 12.000000
      H                  1.007825


 Effective nuclear repulsion energy (a.u.)     557.3485544429

            Nuclear Dipole moment (a.u.) 
            ----------------------------
        X                 Y               Z
 ---------------- ---------------- ----------------
     0.0000000000     0.0000000000    -0.0000000000


                                 NWChem DFT Module
                                 -----------------


                      Basis "ao basis" -> "ao basis" (cartesian)
                      -----
  N (Nitrogen)
  ------------
            Exponent  Coefficients 
       -------------- ---------------------------------------------------------
  1 S  9.04600000E+03  0.000700
  1 S  1.35700000E+03  0.005389
  1 S  3.09300000E+02  0.027406
  1 S  8.77300000E+01  0.103207
  1 S  2.85600000E+01  0.278723
  1 S  1.02100000E+01  0.448540
  1 S  3.83800000E+00  0.278238
  1 S  7.46600000E-01  0.015440

  2 S  9.04600000E+03 -0.000153
  2 S  1.35700000E+03 -0.001208
  2 S  3.09300000E+02 -0.005992
  2 S  8.77300000E+01 -0.024544
  2 S  2.85600000E+01 -0.067459
  2 S  1.02100000E+01 -0.158078
  2 S  3.83800000E+00 -0.121831
  2 S  7.46600000E-01  0.549003

  3 S  2.24800000E-01  1.000000

  4 P  1.35500000E+01  0.039919
  4 P  2.91700000E+00  0.217169
  4 P  7.97300000E-01  0.510319

  5 P  2.18500000E-01  1.000000

  6 D  8.17000000E-01  1.000000

  C (Carbon)
  ----------
            Exponent  Coefficients 
       -------------- ---------------------------------------------------------
  1 S  6.66500000E+03  0.000692
  1 S  1.00000000E+03  0.005329
  1 S  2.28000000E+02  0.027077
  1 S  6.47100000E+01  0.101718
  1 S  2.10600000E+01  0.274740
  1 S  7.49500000E+00  0.448564
  1 S  2.79700000E+00  0.285074
  1 S  5.21500000E-01  0.015204

  2 S  6.66500000E+03 -0.000146
  2 S  1.00000000E+03 -0.001154
  2 S  2.28000000E+02 -0.005725
  2 S  6.47100000E+01 -0.023312
  2 S  2.10600000E+01 -0.063955
  2 S  7.49500000E+00 -0.149981
  2 S  2.79700000E+00 -0.127262
  2 S  5.21500000E-01  0.544529

  3 S  1.59600000E-01  1.000000

  4 P  9.43900000E+00  0.038109
  4 P  2.00200000E+00  0.209480
  4 P  5.45600000E-01  0.508557

  5 P  1.51700000E-01  1.000000

  6 D  5.50000000E-01  1.000000

  H (Hydrogen)
  ------------
            Exponent  Coefficients 
       -------------- ---------------------------------------------------------
  1 S  1.30100000E+01  0.019685
  1 S  1.96200000E+00  0.137977
  1 S  4.44600000E-01  0.478148

  2 S  1.22000000E-01  1.000000

  3 P  7.27000000E-01  1.000000



 Summary of "ao basis" -> "ao basis" (cartesian)
 ------------------------------------------------------------------------------
       Tag                 Description            Shells   Functions and Types
 ---------------- ------------------------------  ------  ---------------------
 N                          cc-pvdz                  6       15   3s2p1d
 C                          cc-pvdz                  6       15   3s2p1d
 H                          cc-pvdz                  3        5   2s1p




 Summary of "ao basis" -> "ao basis" (cartesian)
 ------------------------------------------------------------------------------
       Tag                 Description            Shells   Functions and Types
 ---------------- ------------------------------  ------  ---------------------
 N                          cc-pvdz                  6       15   3s2p1d
 C                          cc-pvdz                  6       15   3s2p1d
 H                          cc-pvdz                  3        5   2s1p


  Caching 1-el integrals 

            General Information
            -------------------
          SCF calculation type: DFT
          Wavefunction type:  closed shell.
          No. of atoms     :    20
          No. of electrons :    84
           Alpha electrons :    42
            Beta electrons :    42
          Charge           :     0
          Spin multiplicity:     1
          Use of symmetry is: off; symmetry adaption is: off
          Maximum number of iterations:  50
          AO basis - number of functions:   220
                     number of shells:    96
          Convergence on energy requested:  1.00D-06
          Convergence on density requested:  1.00D-05
          Convergence on gradient requested:  5.00D-04

              XC Information
              --------------
                         B3LYP Method XC Potential
                     Hartree-Fock (Exact) Exchange  0.200          
                        Slater Exchange Functional  0.800 local    
                    Becke 1988 Exchange Functional  0.720 non-local
              Lee-Yang-Parr Correlation Functional  0.810          
                  VWN I RPA Correlation Functional  0.190 local    

             Grid Information
             ----------------
          Grid used for XC integration:  medium    
          Radial quadrature: Mura-Knowles        
          Angular quadrature: Lebedev. 
          Tag              B.-S. Rad. Rad. Pts. Rad. Cut. Ang. Pts.
          ---              ---------- --------- --------- ---------
          N                   0.65       49          14.0       434
          C                   0.70       49          16.0       434
          H                   0.35       45          15.0       434
          Grid pruning is: on 
          Number of quadrature shells:   948
          Spatial weights used:  Erf1

          Convergence Information
          -----------------------
          Convergence aids based upon iterative change in 
          total energy or number of iterations. 
          Levelshifting, if invoked, occurs when the 
          HOMO/LUMO gap drops below (HL_TOL):  1.00D-02
          DIIS, if invoked, will attempt to extrapolate 
          using up to (NFOCK): 10 stored Fock matrices.

                    Damping( 0%)  Levelshifting(0.5)       DIIS
                  --------------- ------------------- ---------------
          dE  on:    start            ASAP                start   
          dE off:    2 iters         50 iters            50 iters 


      Screening Tolerance Information
      -------------------------------
          Density screening/tol_rho:  1.00D-10
          AO Gaussian exp screening on grid/accAOfunc:  14
          CD Gaussian exp screening on grid/accCDfunc:  20
          XC Gaussian exp screening on grid/accXCfunc:  20
          Schwarz screening/accCoul:  1.00D-08


      Superposition of Atomic Density Guess
      -------------------------------------

 Sum of atomic energies:        -522.52349345

      Non-variational initial energy
      ------------------------------

 Total energy =    -530.058645
 1-e energy   =   -1810.921245
 2-e energy   =     723.514045
 HOMO         =      -0.285253
 LUMO         =      -0.034978

   Time after variat. SCF:      1.2
   Time prior to 1st pass:      1.2
 Shared filesystem for scratch_dir 

 Integral file          = ./xyz54.aoints.0
 Record size in doubles =    65536    No. of integs per rec  =    43688
 Max. records in memory =     4552    Max. records in file   = 22904544
 No. of bits per label  =        8    No. of bits per value  =       64


 #quartets = 3.799D+06 #integrals = 7.697D+07 #direct =  0.0% #cached =100.0%


File balance: exchanges=     1  moved=   102  time=   0.0

 Shared filesystem for scratch_dir 

 Grid_pts file          = ./xyz54.gridpts.0
 Record size in doubles =  12289        No. of grid_pts per rec  =   3070
 Max. records in memory =     75        Max. recs in file   = 122147635


           Memory utilization after 1st SCF pass: 
           Heap Space remaining (MW):      131.87           131869231
          Stack Space remaining (MW):      431.12           431124996

   convergence    iter        energy       DeltaE   RMS-Dens  Diis-err    time
 ---------------- ----- ----------------- --------- --------- ---------  ------
 d= 0,ls=0.0,diis     1   -528.5032247704 -1.09D+03  7.06D-03  1.66D+00     6.3
 d= 0,ls=0.0,diis     2   -528.5082386918 -5.01D-03  4.09D-03  1.64D+00     7.3
 d= 0,ls=0.0,diis     3   -528.6616129695 -1.53D-01  1.46D-03  2.39D-01     8.5
 d= 0,ls=0.0,diis     4   -528.6838660045 -2.23D-02  5.96D-04  2.18D-02     9.7
 d= 0,ls=0.0,diis     5   -528.6863895225 -2.52D-03  1.77D-04  2.22D-03    10.9
  Resetting Diis
 d= 0,ls=0.0,diis     6   -528.6866993205 -3.10D-04  3.72D-05  1.10D-04    12.1
 d= 0,ls=0.0,diis     7   -528.6867135170 -1.42D-05  1.28D-05  3.96D-06    13.3
 d= 0,ls=0.0,diis     8   -528.6867131006  4.16D-07  7.74D-06  7.86D-06    14.5


         Total DFT energy =     -528.686713100608
      One electron energy =    -1818.431365602844
           Coulomb energy =      806.330304940022
    Exchange-Corr. energy =      -73.934206880724
 Nuclear repulsion energy =      557.348554442939

 Numeric. integr. density =       83.999979445250

     Total iterative time =     13.3s



                       DFT Final Molecular Orbital Analysis
                       ------------------------------------

 Vector    1  Occ=2.000000D+00  E=-1.434433D+01
              MO Center=  2.8D-02, -3.4D+00, -5.3D-01, r^2= 1.5D+00
   Bfn.  Coefficient  Atom+Function         Bfn.  Coefficient  Atom+Function  
  ----- ------------  ---------------      ----- ------------  ---------------
   111      0.717494  11 N  s               126     -0.701678  12 N  s         

 Vector    2  Occ=2.000000D+00  E=-1.434432D+01
              MO Center= -2.6D-02, -3.4D+00, -5.3D-01, r^2= 1.5D+00
   Bfn.  Coefficient  Atom+Function         Bfn.  Coefficient  Atom+Function  
  ----- ------------  ---------------      ----- ------------  ---------------
   126      0.717515  12 N  s               111      0.701700  11 N  s         

 Vector    3  Occ=2.000000D+00  E=-1.434429D+01
              MO Center=  1.6D-02,  3.4D+00,  5.3D-01, r^2= 1.5D+00
   Bfn.  Coefficient  Atom+Function         Bfn.  Coefficient  Atom+Function  
  ----- ------------  ---------------      ----- ------------  ---------------
    16     -0.714442   2 N  s                 1      0.704785   1 N  s         

 Vector    4  Occ=2.000000D+00  E=-1.434428D+01
              MO Center= -1.6D-02,  3.4D+00,  5.3D-01, r^2= 1.5D+00
   Bfn.  Coefficient  Atom+Function         Bfn.  Coefficient  Atom+Function  
  ----- ------------  ---------------      ----- ------------  ---------------
     1      0.714464   1 N  s                16      0.704806   2 N  s         

 Vector    5  Occ=2.000000D+00  E=-1.026288D+01
              MO Center=  1.5D-03, -3.7D+00, -1.1D+00, r^2= 2.8D-02
   Bfn.  Coefficient  Atom+Function         Bfn.  Coefficient  Atom+Function  
  ----- ------------  ---------------      ----- ------------  ---------------
   141      1.003766  13 C  s         

 Vector    6  Occ=2.000000D+00  E=-1.026284D+01
              MO Center= -6.6D-05,  3.7D+00,  1.1D+00, r^2= 2.8D-02
   Bfn.  Coefficient  Atom+Function         Bfn.  Coefficient  Atom+Function  
  ----- ------------  ---------------      ----- ------------  ---------------
    31      1.003766   3 C  s         

 Vector    7  Occ=2.000000D+00  E=-1.024996D+01
              MO Center=  2.5D-01, -2.9D+00,  7.2D-01, r^2= 1.4D+00
   Bfn.  Coefficient  Atom+Function         Bfn.  Coefficient  Atom+Function  
  ----- ------------  ---------------      ----- ------------  ---------------
   156      0.781189  14 C  s               171      0.630176  15 C  s         

 Vector    8  Occ=2.000000D+00  E=-1.024995D+01
              MO Center= -2.5D-01, -2.9D+00,  7.2D-01, r^2= 1.4D+00
   Bfn.  Coefficient  Atom+Function         Bfn.  Coefficient  Atom+Function  
  ----- ------------  ---------------      ----- ------------  ---------------
   171      0.781281  15 C  s               156     -0.630289  14 C  s         

 Vector    9  Occ=2.000000D+00  E=-1.024992D+01
              MO Center= -6.8D-02,  2.9D+00, -7.1D-01, r^2= 1.4D+00
   Bfn.  Coefficient  Atom+Function         Bfn.  Coefficient  Atom+Function  
  ----- ------------  ---------------      ----- ------------  ---------------
    46      0.729909   4 C  s                61      0.688918   5 C  s         

 Vector   10  Occ=2.000000D+00  E=-1.024992D+01
              MO Center=  6.8D-02,  2.9D+00, -7.1D-01, r^2= 1.4D+00
   Bfn.  Coefficient  Atom+Function         Bfn.  Coefficient  Atom+Function  
  ----- ------------  ---------------      ----- ------------  ---------------
    61     -0.730009   5 C  s                46      0.689024   4 C  s         

 Vector   11  Occ=2.000000D+00  E=-1.021757D+01
              MO Center= -1.6D-03, -2.7D+00,  1.4D+00, r^2= 2.8D-02
   Bfn.  Coefficient  Atom+Function         Bfn.  Coefficient  Atom+Function  
  ----- ------------  ---------------      ----- ------------  ---------------
   186      1.003718  16 C  s         

 Vector   12  Occ=2.000000D+00  E=-1.021754D+01
              MO Center=  6.0D-05,  2.7D+00, -1.4D+00, r^2= 2.8D-02
   Bfn.  Coefficient  Atom+Function         Bfn.  Coefficient  Atom+Function  
  ----- ------------  ---------------      ----- ------------  ---------------
    76      1.003718   6 C  s         

 Vector   13  Occ=2.000000D+00  E=-9.918397D-01
              MO Center=  5.1D-04, -3.3D+00, -2.7D-01, r^2= 1.6D+00
   Bfn.  Coefficient  Atom+Function         Bfn.  Coefficient  Atom+Function  
  ----- ------------  ---------------      ----- ------------  ---------------
   112      0.228575  11 N  s               127      0.228574  12 N  s         
   113      0.212566  11 N  s               128      0.212566  12 N  s         
   142      0.209204  13 C  s               157      0.138419  14 C  s         
   172      0.138419  15 C  s               114     -0.087549  11 N  px        
   129      0.087449  12 N  px              146      0.085574  13 C  pz        

 Vector   14  Occ=2.000000D+00  E=-9.918064D-01
              MO Center= -2.9D-05,  3.3D+00,  2.7D-01, r^2= 1.6D+00
   Bfn.  Coefficient  Atom+Function         Bfn.  Coefficient  Atom+Function  
  ----- ------------  ---------------      ----- ------------  ---------------
     2      0.228576   1 N  s                17      0.228574   2 N  s         
     3      0.212568   1 N  s                18      0.212567   2 N  s         
    32      0.209205   3 C  s                47      0.138419   4 C  s         
    62      0.138418   5 C  s                 4      0.087502   1 N  px        
    19     -0.087497   2 N  px               36     -0.085363   3 C  pz        

 Vector   15  Occ=2.000000D+00  E=-8.957518D-01
              MO Center=  4.4D-04, -3.3D+00, -2.1D-01, r^2= 2.0D+00
   Bfn.  Coefficient  Atom+Function         Bfn.  Coefficient  Atom+Function  
  ----- ------------  ---------------      ----- ------------  ---------------
   112      0.274589  11 N  s               127     -0.274589  12 N  s         
   113      0.234700  11 N  s               128     -0.234700  12 N  s         
   144      0.176947  13 C  px              157      0.161683  14 C  s         
   172     -0.161684  15 C  s               158      0.100692  14 C  s         
   173     -0.100693  15 C  s               161     -0.097177  14 C  pz        

 Vector   16  Occ=2.000000D+00  E=-8.957175D-01
              MO Center= -1.1D-05,  3.3D+00,  2.1D-01, r^2= 2.0D+00
   Bfn.  Coefficient  Atom+Function         Bfn.  Coefficient  Atom+Function  
  ----- ------------  ---------------      ----- ------------  ---------------
     2      0.274588   1 N  s                17     -0.274590   2 N  s         
     3      0.234699   1 N  s                18     -0.234701   2 N  s         
    34     -0.176949   3 C  px               47      0.161682   4 C  s         
    62     -0.161684   5 C  s                48      0.100693   4 C  s         
    63     -0.100693   5 C  s                51      0.096933   4 C  pz        

 Vector   17  Occ=2.000000D+00  E=-8.003722D-01
              MO Center= -6.0D-04, -2.9D+00,  6.0D-01, r^2= 2.6D+00
   Bfn.  Coefficient  Atom+Function         Bfn.  Coefficient  Atom+Function  
  ----- ------------  ---------------      ----- ------------  ---------------
   187      0.291218  16 C  s               142     -0.194119  13 C  s         
   157      0.178661  14 C  s               172      0.178663  15 C  s         
   188      0.156404  16 C  s               143     -0.129746  13 C  s         
   158      0.123546  14 C  s               173      0.123546  15 C  s         
   216      0.104038  20 H  s               112     -0.084989  11 N  s         

 Vector   18  Occ=2.000000D+00  E=-8.003380D-01
              MO Center=  8.8D-06,  2.9D+00, -5.9D-01, r^2= 2.6D+00
   Bfn.  Coefficient  Atom+Function         Bfn.  Coefficient  Atom+Function  
  ----- ------------  ---------------      ----- ------------  ---------------
    77      0.291218   6 C  s                32     -0.194121   3 C  s         
    47      0.178666   4 C  s                62      0.178663   5 C  s         
    78      0.156434   6 C  s                33     -0.129753   3 C  s         
    48      0.123520   4 C  s                63      0.123517   5 C  s         
   106      0.104039  10 H  s                 2     -0.084994   1 N  s         

 Vector   19  Occ=2.000000D+00  E=-6.630116D-01
              MO Center= -1.4D-04, -3.0D+00,  3.7D-01, r^2= 3.3D+00
   Bfn.  Coefficient  Atom+Function         Bfn.  Coefficient  Atom+Function  
  ----- ------------  ---------------      ----- ------------  ---------------
   144      0.238836  13 C  px              157     -0.231925  14 C  s         
   172      0.231888  15 C  s               189     -0.209274  16 C  px        
   158     -0.171919  14 C  s               173      0.171868  15 C  s         
   206     -0.149280  18 H  s               211      0.149256  19 H  s         
   112      0.123227  11 N  s               113      0.123535  11 N  s         

 Vector   20  Occ=2.000000D+00  E=-6.629781D-01
              MO Center=  1.2D-04,  3.0D+00, -3.7D-01, r^2= 3.3D+00
   Bfn.  Coefficient  Atom+Function         Bfn.  Coefficient  Atom+Function  
  ----- ------------  ---------------      ----- ------------  ---------------
    34      0.238839   3 C  px               47      0.231898   4 C  s         
    62     -0.231921   5 C  s                79     -0.209275   6 C  px        
    48      0.171870   4 C  s                63     -0.171901   5 C  s         
    96      0.149259   8 H  s               101     -0.149278   9 H  s         
     2     -0.123258   1 N  s                 3     -0.123539   1 N  s         

 Vector   21  Occ=2.000000D+00  E=-6.610917D-01
              MO Center= -2.8D-05, -3.2D+00,  3.0D-02, r^2= 3.1D+00
   Bfn.  Coefficient  Atom+Function         Bfn.  Coefficient  Atom+Function  
  ----- ------------  ---------------      ----- ------------  ---------------
   188      0.244112  16 C  s               142      0.238647  13 C  s         
   187      0.206079  16 C  s               143      0.192123  13 C  s         
   116     -0.169802  11 N  pz              131     -0.169639  12 N  pz        
   161      0.157937  14 C  pz              176      0.158144  15 C  pz        
   201      0.150503  17 H  s               216      0.134055  20 H  s         

 Vector   22  Occ=2.000000D+00  E=-6.610565D-01
              MO Center= -1.1D-04,  3.2D+00, -3.0D-02, r^2= 3.1D+00
   Bfn.  Coefficient  Atom+Function         Bfn.  Coefficient  Atom+Function  
  ----- ------------  ---------------      ----- ------------  ---------------
    78      0.244115   6 C  s                32      0.238646   3 C  s         
    77      0.206080   6 C  s                33      0.192115   3 C  s         
     6      0.169324   1 N  pz               21      0.169273   2 N  pz        
    51     -0.157630   4 C  pz               66     -0.157667   5 C  pz        
    91      0.150498   7 H  s               106      0.134056  10 H  s         

 Vector   23  Occ=2.000000D+00  E=-5.404406D-01
              MO Center= -1.6D-04, -3.1D+00,  2.5D-01, r^2= 4.4D+00
   Bfn.  Coefficient  Atom+Function         Bfn.  Coefficient  Atom+Function  
  ----- ------------  ---------------      ----- ------------  ---------------
   159      0.231046  14 C  px              174     -0.231239  15 C  px        
   206      0.205939  18 H  s               211      0.205941  19 H  s         
   146     -0.201659  13 C  pz              201      0.184688  17 H  s         
   191      0.156602  16 C  pz              114      0.108987  11 N  px        
   129     -0.108867  12 N  px              216      0.088207  20 H  s         

 Vector   24  Occ=2.000000D+00  E=-5.404060D-01
              MO Center=  1.1D-06,  3.1D+00, -2.5D-01, r^2= 4.4D+00
   Bfn.  Coefficient  Atom+Function         Bfn.  Coefficient  Atom+Function  
  ----- ------------  ---------------      ----- ------------  ---------------
    49      0.231141   4 C  px               64     -0.231146   5 C  px        
    96     -0.205942   8 H  s               101     -0.205944   9 H  s         
    36     -0.201154   3 C  pz               91     -0.184684   7 H  s         
    81      0.156217   6 C  pz                4      0.108929   1 N  px        
    19     -0.108919   2 N  px              106     -0.088211  10 H  s         

 Vector   25  Occ=2.000000D+00  E=-5.188834D-01
              MO Center= -1.1D-04, -3.1D+00,  2.2D-01, r^2= 2.5D+00
   Bfn.  Coefficient  Atom+Function         Bfn.  Coefficient  Atom+Function  
  ----- ------------  ---------------      ----- ------------  ---------------
   189      0.275091  16 C  px              144      0.273199  13 C  px        
   161      0.251308  14 C  pz              176     -0.251507  15 C  pz        
   116     -0.223947  11 N  pz              131      0.223656  12 N  pz        
   114     -0.144494  11 N  px              129     -0.145055  12 N  px        
   159     -0.099746  14 C  px              160      0.099276  14 C  py        

 Vector   26  Occ=2.000000D+00  E=-5.188495D-01
              MO Center=  6.5D-06,  3.1D+00, -2.2D-01, r^2= 2.5D+00
   Bfn.  Coefficient  Atom+Function         Bfn.  Coefficient  Atom+Function  
  ----- ------------  ---------------      ----- ------------  ---------------
    79      0.275091   6 C  px               34      0.273199   3 C  px        
    51      0.250776   4 C  pz               66     -0.250792   5 C  pz        
     6     -0.223256   1 N  pz               21      0.223232   2 N  pz        
     4     -0.144761   1 N  px               19     -0.144790   2 N  px        
    50      0.100915   4 C  py               65     -0.100898   5 C  py        

 Vector   27  Occ=2.000000D+00  E=-4.714598D-01
              MO Center= -1.1D-03, -2.7D+00,  9.9D-01, r^2= 4.1D+00
   Bfn.  Coefficient  Atom+Function         Bfn.  Coefficient  Atom+Function  
  ----- ------------  ---------------      ----- ------------  ---------------
   216      0.355880  20 H  s               191      0.348583  16 C  pz        
   201     -0.193353  17 H  s               146      0.179933  13 C  pz        
   217      0.151281  20 H  s               113      0.143287  11 N  s         
   128      0.143288  12 N  s               158     -0.138592  14 C  s         
   173     -0.138593  15 C  s               190      0.137618  16 C  py        

 Vector   28  Occ=2.000000D+00  E=-4.714228D-01
              MO Center=  2.4D-05,  2.7D+00, -9.8D-01, r^2= 4.1D+00
   Bfn.  Coefficient  Atom+Function         Bfn.  Coefficient  Atom+Function  
  ----- ------------  ---------------      ----- ------------  ---------------
   106     -0.355881  10 H  s                81      0.347715   6 C  pz        
    91      0.193350   7 H  s                36      0.179475   3 C  pz        
   107     -0.151227  10 H  s                 3     -0.143180   1 N  s         
    18     -0.143181   2 N  s                80      0.139803   6 C  py        
    48      0.138508   4 C  s                63      0.138506   5 C  s         

 Vector   29  Occ=2.000000D+00  E=-4.309519D-01
              MO Center=  1.7D-04, -8.2D-01, -2.5D-02, r^2= 1.2D+01
   Bfn.  Coefficient  Atom+Function         Bfn.  Coefficient  Atom+Function  
  ----- ------------  ---------------      ----- ------------  ---------------
   115      0.192146  11 N  py              130      0.192144  12 N  py        
   145      0.190793  13 C  py              160      0.154406  14 C  py        
   175      0.154408  15 C  py                5     -0.148056   1 N  py        
    20     -0.148055   2 N  py               35     -0.147000   3 C  py        
   190      0.129784  16 C  py               50     -0.119003   4 C  py        

 Vector   30  Occ=2.000000D+00  E=-4.308168D-01
              MO Center=  9.5D-05,  8.3D-01,  2.4D-02, r^2= 1.2D+01
   Bfn.  Coefficient  Atom+Function         Bfn.  Coefficient  Atom+Function  
  ----- ------------  ---------------      ----- ------------  ---------------
     5      0.191805   1 N  py               20      0.191803   2 N  py        
    35      0.190486   3 C  py               50      0.154032   4 C  py        
    65      0.154031   5 C  py              115      0.148602  11 N  py        
   130      0.148600  12 N  py              145      0.147591  13 C  py        
    80      0.129498   6 C  py              160      0.119312  14 C  py        

 Vector   31  Occ=2.000000D+00  E=-4.241135D-01
              MO Center= -6.9D-04, -2.7D+00,  6.4D-01, r^2= 4.8D+00
   Bfn.  Coefficient  Atom+Function         Bfn.  Coefficient  Atom+Function  
  ----- ------------  ---------------      ----- ------------  ---------------
   159      0.316628  14 C  px              174      0.316825  15 C  px        
   206      0.246921  18 H  s               211     -0.246931  19 H  s         
   189     -0.242546  16 C  px              116     -0.131229  11 N  pz        
   131      0.131392  12 N  pz              207      0.122799  18 H  s         
   212     -0.122807  19 H  s               162      0.093751  14 C  px        

 Vector   32  Occ=2.000000D+00  E=-4.240784D-01
              MO Center=  7.1D-05,  2.7D+00, -6.4D-01, r^2= 4.8D+00
   Bfn.  Coefficient  Atom+Function         Bfn.  Coefficient  Atom+Function  
  ----- ------------  ---------------      ----- ------------  ---------------
    49      0.316716   4 C  px               64      0.316740   5 C  px        
    96     -0.246922   8 H  s               101      0.246943   9 H  s         
    79     -0.242541   6 C  px                6     -0.130970   1 N  pz        
    21      0.130993   2 N  pz               97     -0.122722   8 H  s         
   102      0.122730   9 H  s                52      0.093784   4 C  px        

 Vector   33  Occ=2.000000D+00  E=-4.141623D-01
              MO Center=  4.5D-04, -3.3D+00, -1.9D-01, r^2= 4.3D+00
   Bfn.  Coefficient  Atom+Function         Bfn.  Coefficient  Atom+Function  
  ----- ------------  ---------------      ----- ------------  ---------------
   146      0.320678  13 C  pz              201     -0.244801  17 H  s         
   114     -0.197704  11 N  px              129      0.197941  12 N  px        
   188     -0.195572  16 C  s               206      0.195036  18 H  s         
   211      0.195022  19 H  s               161      0.163102  14 C  pz        
   176      0.162855  15 C  pz              202     -0.128704  17 H  s         

 Vector   34  Occ=2.000000D+00  E=-4.141275D-01
              MO Center= -1.0D-04,  3.3D+00,  1.9D-01, r^2= 4.3D+00
   Bfn.  Coefficient  Atom+Function         Bfn.  Coefficient  Atom+Function  
  ----- ------------  ---------------      ----- ------------  ---------------
    36      0.319873   3 C  pz               91      0.244803   7 H  s         
     4     -0.197817   1 N  px               19      0.197835   2 N  px        
    78      0.195543   6 C  s                96     -0.195045   8 H  s         
   101     -0.195014   9 H  s                51      0.162578   4 C  pz        
    66      0.162547   5 C  pz               35      0.129057   3 C  py        

 Vector   35  Occ=2.000000D+00  E=-3.223939D-01
              MO Center=  1.5D-04, -1.3D+00, -1.3D-02, r^2= 1.2D+01
   Bfn.  Coefficient  Atom+Function         Bfn.  Coefficient  Atom+Function  
  ----- ------------  ---------------      ----- ------------  ---------------
   115      0.258900  11 N  py              130     -0.258895  12 N  py        
   160      0.212386  14 C  py              175     -0.212390  15 C  py        
   118      0.172612  11 N  py              133     -0.172610  12 N  py        
     5      0.170327   1 N  py               20     -0.170327   2 N  py        
    50      0.139715   4 C  py               65     -0.139717   5 C  py        

 Vector   36  Occ=2.000000D+00  E=-3.223063D-01
              MO Center=  6.7D-05,  1.3D+00,  1.3D-02, r^2= 1.2D+01
   Bfn.  Coefficient  Atom+Function         Bfn.  Coefficient  Atom+Function  
  ----- ------------  ---------------      ----- ------------  ---------------
     5      0.258307   1 N  py               20     -0.258309   2 N  py        
    50      0.211943   4 C  py               65     -0.211945   5 C  py        
     8      0.172440   1 N  py               23     -0.172442   2 N  py        
   115     -0.170840  11 N  py              130      0.170837  12 N  py        
   160     -0.140185  14 C  py              175      0.140187  15 C  py        

 Vector   37  Occ=2.000000D+00  E=-3.059566D-01
              MO Center=  7.9D-04, -3.4D+00, -5.0D-01, r^2= 3.2D+00
   Bfn.  Coefficient  Atom+Function         Bfn.  Coefficient  Atom+Function  
  ----- ------------  ---------------      ----- ------------  ---------------
   116     -0.252935  11 N  pz              131     -0.253335  12 N  pz        
   113      0.238063  11 N  s               128      0.238063  12 N  s         
   114      0.197769  11 N  px              129     -0.197136  12 N  px        
   201     -0.184761  17 H  s               119     -0.175580  11 N  pz        
   134     -0.175891  12 N  pz              191     -0.156371  16 C  pz        

 Vector   38  Occ=2.000000D+00  E=-3.059198D-01
              MO Center= -5.6D-05,  3.4D+00,  5.0D-01, r^2= 3.2D+00
   Bfn.  Coefficient  Atom+Function         Bfn.  Coefficient  Atom+Function  
  ----- ------------  ---------------      ----- ------------  ---------------
     6      0.252491   1 N  pz               21      0.252520   2 N  pz        
     3      0.238040   1 N  s                18      0.238037   2 N  s         
     4     -0.197468   1 N  px               19      0.197434   2 N  px        
    91     -0.184768   7 H  s                 9      0.175289   1 N  pz        
    24      0.175312   2 N  pz               81      0.155981   6 C  pz        

 Vector   39  Occ=2.000000D+00  E=-2.938893D-01
              MO Center= -2.0D-04, -5.5D-01,  7.2D-02, r^2= 1.2D+01
   Bfn.  Coefficient  Atom+Function         Bfn.  Coefficient  Atom+Function  
  ----- ------------  ---------------      ----- ------------  ---------------
   190      0.270004  16 C  py               80     -0.224970   6 C  py        
   145     -0.223288  13 C  py               35      0.186139   3 C  py        
   193      0.183803  16 C  py               83     -0.153326   6 C  py        
   148     -0.150018  13 C  py              160      0.146997  14 C  py        
   175      0.146994  15 C  py               38      0.124937   3 C  py        

 Vector   40  Occ=2.000000D+00  E=-2.936990D-01
              MO Center= -1.4D-04,  5.4D-01, -7.1D-02, r^2= 1.2D+01
   Bfn.  Coefficient  Atom+Function         Bfn.  Coefficient  Atom+Function  
  ----- ------------  ---------------      ----- ------------  ---------------
    80      0.269768   6 C  py              190      0.226051  16 C  py        
    35     -0.222538   3 C  py              145     -0.186369  13 C  py        
    83      0.182711   6 C  py              193      0.152944  16 C  py        
    38     -0.150258   3 C  py               50      0.147149   4 C  py        
    65      0.147148   5 C  py              148     -0.125986  13 C  py        

 Vector   41  Occ=2.000000D+00  E=-2.572598D-01
              MO Center=  6.4D-04, -3.4D+00, -3.6D-01, r^2= 3.2D+00
   Bfn.  Coefficient  Atom+Function         Bfn.  Coefficient  Atom+Function  
  ----- ------------  ---------------      ----- ------------  ---------------
   114      0.371574  11 N  px              129      0.371244  12 N  px        
   117      0.265550  11 N  px              132      0.265294  12 N  px        
   192      0.214045  16 C  px              144     -0.195294  13 C  px        
   189      0.186130  16 C  px              131      0.131142  12 N  pz        
   116     -0.130398  11 N  pz              113      0.119033  11 N  s         

 Vector   42  Occ=2.000000D+00  E=-2.572247D-01
              MO Center= -7.3D-06,  3.4D+00,  3.6D-01, r^2= 3.2D+00
   Bfn.  Coefficient  Atom+Function         Bfn.  Coefficient  Atom+Function  
  ----- ------------  ---------------      ----- ------------  ---------------
     4      0.371414   1 N  px               19      0.371406   2 N  px        
     7      0.265426   1 N  px               22      0.265419   2 N  px        
    82      0.214047   6 C  px               34     -0.195292   3 C  px        
    79      0.186129   6 C  px                6     -0.130411   1 N  pz        
    21      0.130480   2 N  pz                3     -0.119027   1 N  s         

 Vector   43  Occ=0.000000D+00  E=-4.754470D-02
              MO Center= -7.1D-05, -3.1D-01,  2.7D-02, r^2= 1.3D+01
   Bfn.  Coefficient  Atom+Function         Bfn.  Coefficient  Atom+Function  
  ----- ------------  ---------------      ----- ------------  ---------------
   163      0.273661  14 C  py              178     -0.273639  15 C  py        
   160      0.248835  14 C  py              175     -0.248819  15 C  py        
    53      0.247156   4 C  py               68     -0.247160   5 C  py        
   118     -0.231621  11 N  py              133      0.231632  12 N  py        
    50      0.224661   4 C  py               65     -0.224664   5 C  py        

 Vector   44  Occ=0.000000D+00  E=-4.720266D-02
              MO Center= -6.7D-05,  3.1D-01, -2.7D-02, r^2= 1.3D+01
   Bfn.  Coefficient  Atom+Function         Bfn.  Coefficient  Atom+Function  
  ----- ------------  ---------------      ----- ------------  ---------------
    53      0.273110   4 C  py               68     -0.273116   5 C  py        
    50      0.249112   4 C  py               65     -0.249121   5 C  py        
   163     -0.247936  14 C  py              178      0.247932  15 C  py        
     8     -0.230275   1 N  py               23      0.230267   2 N  py        
   160     -0.226232  14 C  py              175      0.226228  15 C  py        

 Vector   45  Occ=0.000000D+00  E=-3.556832D-02
              MO Center=  5.8D-05, -6.9D-01,  8.8D-03, r^2= 1.3D+01
   Bfn.  Coefficient  Atom+Function         Bfn.  Coefficient  Atom+Function  
  ----- ------------  ---------------      ----- ------------  ---------------
   193      0.349342  16 C  py              148      0.323833  13 C  py        
   145      0.305188  13 C  py               83     -0.280204   6 C  py        
    38     -0.260245   3 C  py              190      0.256106  16 C  py        
    35     -0.244976   3 C  py               80     -0.205469   6 C  py        
   163     -0.195053  14 C  py              178     -0.195075  15 C  py        

 Vector   46  Occ=0.000000D+00  E=-3.539784D-02
              MO Center=  3.7D-05,  6.9D-01, -9.0D-03, r^2= 1.3D+01
   Bfn.  Coefficient  Atom+Function         Bfn.  Coefficient  Atom+Function  
  ----- ------------  ---------------      ----- ------------  ---------------
    83      0.349527   6 C  py               38      0.321764   3 C  py        
    35      0.304682   3 C  py              193      0.282198  16 C  py        
   148      0.259324  13 C  py               80      0.256170   6 C  py        
   145      0.245904  13 C  py              190      0.206846  16 C  py        
    53     -0.194648   4 C  py               68     -0.194649   5 C  py        

 Vector   47  Occ=0.000000D+00  E= 5.998384D-02
              MO Center= -1.1D-03, -8.9D-02,  6.3D-02, r^2= 1.6D+01
   Bfn.  Coefficient  Atom+Function         Bfn.  Coefficient  Atom+Function  
  ----- ------------  ---------------      ----- ------------  ---------------
   217      0.894766  20 H  s               107      0.865025  10 H  s         
   207      0.667039  18 H  s               212      0.667065  19 H  s         
    97      0.645271   8 H  s               102      0.645208   9 H  s         
   188     -0.640303  16 C  s                78     -0.619266   6 C  s         
   158     -0.485123  14 C  s               173     -0.485149  15 C  s         

 Vector   48  Occ=0.000000D+00  E= 6.101787D-02
              MO Center= -1.1D-03,  7.9D-02, -5.9D-02, r^2= 1.6D+01
   Bfn.  Coefficient  Atom+Function         Bfn.  Coefficient  Atom+Function  
  ----- ------------  ---------------      ----- ------------  ---------------
   107      0.909780  10 H  s               217     -0.880664  20 H  s         
    97      0.659197   8 H  s               102      0.659109   9 H  s         
    78     -0.635909   6 C  s               207     -0.636948  18 H  s         
   212     -0.637040  19 H  s               188      0.614784  16 C  s         
    48     -0.496421   4 C  s                63     -0.496357   5 C  s         

 Vector   49  Occ=0.000000D+00  E= 9.999832D-02
              MO Center= -7.3D-04, -7.1D-02,  3.6D-02, r^2= 1.8D+01
   Bfn.  Coefficient  Atom+Function         Bfn.  Coefficient  Atom+Function  
  ----- ------------  ---------------      ----- ------------  ---------------
   207     -1.103783  18 H  s               212      1.103746  19 H  s         
    97      1.076583   8 H  s               102     -1.076564   9 H  s         
   158      0.879310  14 C  s               173     -0.879323  15 C  s         
    48     -0.857439   4 C  s                63      0.857425   5 C  s         
   162      0.463215  14 C  px              177      0.463860  15 C  px        

 Vector   50  Occ=0.000000D+00  E= 1.012888D-01
              MO Center= -9.2D-04,  6.3D-02, -3.2D-02, r^2= 1.8D+01
   Bfn.  Coefficient  Atom+Function         Bfn.  Coefficient  Atom+Function  
  ----- ------------  ---------------      ----- ------------  ---------------
    97      1.099924   8 H  s               102     -1.099817   9 H  s         
   207      1.072488  18 H  s               212     -1.072628  19 H  s         
    48     -0.886365   4 C  s                63      0.886394   5 C  s         
   158     -0.864698  14 C  s               173      0.864679  15 C  s         
    52      0.459916   4 C  px               67      0.459869   5 C  px        

 Vector   51  Occ=0.000000D+00  E= 1.050196D-01
              MO Center=  1.3D-03, -3.0D-01, -1.4D-01, r^2= 2.4D+01
   Bfn.  Coefficient  Atom+Function         Bfn.  Coefficient  Atom+Function  
  ----- ------------  ---------------      ----- ------------  ---------------
   202     -1.476994  17 H  s                92      1.367362   7 H  s         
   143      0.914252  13 C  s                33     -0.845994   3 C  s         
   149     -0.694191  13 C  pz               39     -0.641023   3 C  pz        
   217      0.636041  20 H  s               107     -0.591518  10 H  s         
   194     -0.391671  16 C  pz               84     -0.364301   6 C  pz        

 Vector   52  Occ=0.000000D+00  E= 1.055061D-01
              MO Center=  1.1D-03,  3.1D-01,  1.4D-01, r^2= 2.5D+01
   Bfn.  Coefficient  Atom+Function         Bfn.  Coefficient  Atom+Function  
  ----- ------------  ---------------      ----- ------------  ---------------
    92      1.484113   7 H  s               202      1.375100  17 H  s         
    33     -0.927291   3 C  s               143     -0.860086  13 C  s         
    39     -0.695132   3 C  pz              149      0.645530  13 C  pz        
   107     -0.615509  10 H  s               217     -0.569243  20 H  s         
    84     -0.366949   6 C  pz              194      0.339440  16 C  pz        

 Vector   53  Occ=0.000000D+00  E= 1.202869D-01
              MO Center= -2.5D-05, -1.1D+00,  6.2D-02, r^2= 1.2D+01
   Bfn.  Coefficient  Atom+Function         Bfn.  Coefficient  Atom+Function  
  ----- ------------  ---------------      ----- ------------  ---------------
   193      0.425826  16 C  py              163     -0.376045  14 C  py        
   178     -0.376066  15 C  py              148     -0.333567  13 C  py        
   118      0.331183  11 N  py              133      0.331189  12 N  py        
    83      0.286536   6 C  py               53     -0.253677   4 C  py        
    68     -0.253671   5 C  py              115      0.247264  11 N  py        

 Vector   54  Occ=0.000000D+00  E= 1.203885D-01
              MO Center= -1.5D-05,  1.1D+00, -6.2D-02, r^2= 1.2D+01
   Bfn.  Coefficient  Atom+Function         Bfn.  Coefficient  Atom+Function  
  ----- ------------  ---------------      ----- ------------  ---------------
    83      0.436972   6 C  py               53     -0.384695   4 C  py        
    68     -0.384699   5 C  py               38     -0.340873   3 C  py        
     8      0.329607   1 N  py               23      0.329608   2 N  py        
   193     -0.304933  16 C  py              163      0.268194  14 C  py        
   178      0.268163  15 C  py                5      0.246975   1 N  py        

 Vector   55  Occ=0.000000D+00  E= 1.238549D-01
              MO Center= -8.7D-04, -1.6D-01,  9.6D-02, r^2= 1.7D+01
   Bfn.  Coefficient  Atom+Function         Bfn.  Coefficient  Atom+Function  
  ----- ------------  ---------------      ----- ------------  ---------------
   217      1.245062  20 H  s               107      1.171930  10 H  s         
   207     -0.868999  18 H  s               212     -0.868978  19 H  s         
    97     -0.817242   8 H  s               102     -0.817288   9 H  s         
   194     -0.764896  16 C  pz               84      0.718480   6 C  pz        
   188     -0.647501  16 C  s                78     -0.609106   6 C  s         

 Vector   56  Occ=0.000000D+00  E= 1.244345D-01
              MO Center= -5.2D-04,  1.5D-01, -9.2D-02, r^2= 1.8D+01
   Bfn.  Coefficient  Atom+Function         Bfn.  Coefficient  Atom+Function  
  ----- ------------  ---------------      ----- ------------  ---------------
   107      1.227519  10 H  s               217     -1.153403  20 H  s         
    97     -0.867959   8 H  s               102     -0.868165   9 H  s         
   207      0.816592  18 H  s               212      0.816478  19 H  s         
    84      0.744540   6 C  pz              194      0.700709  16 C  pz        
    78     -0.642978   6 C  s               188      0.604278  16 C  s         

 Vector   57  Occ=0.000000D+00  E= 2.147351D-01
              MO Center= -4.8D-04, -1.1D+00,  9.7D-02, r^2= 1.3D+01
   Bfn.  Coefficient  Atom+Function         Bfn.  Coefficient  Atom+Function  
  ----- ------------  ---------------      ----- ------------  ---------------
   113      1.401938  11 N  s               128     -1.402601  12 N  s         
   158     -1.086202  14 C  s               173      1.086253  15 C  s         
     3     -0.962624   1 N  s                18      0.962007   2 N  s         
   147     -0.795765  13 C  px               48      0.746368   4 C  s         
    63     -0.746319   5 C  s               192      0.685195  16 C  px        

 Vector   58  Occ=0.000000D+00  E= 2.148332D-01
              MO Center= -2.1D-05,  1.1D+00, -9.7D-02, r^2= 1.3D+01
   Bfn.  Coefficient  Atom+Function         Bfn.  Coefficient  Atom+Function  
  ----- ------------  ---------------      ----- ------------  ---------------
     3      1.400838   1 N  s                18     -1.400855   2 N  s         
    48     -1.082777   4 C  s                63      1.082720   5 C  s         
   113      0.960265  11 N  s               128     -0.960208  12 N  s         
    37      0.795093   3 C  px              158     -0.741201  14 C  s         
   173      0.741256  15 C  s                82     -0.686007   6 C  px        

 Vector   59  Occ=0.000000D+00  E= 2.172565D-01
              MO Center= -1.8D-04, -6.1D-01,  7.4D-02, r^2= 1.4D+01
   Bfn.  Coefficient  Atom+Function         Bfn.  Coefficient  Atom+Function  
  ----- ------------  ---------------      ----- ------------  ---------------
   188     -1.338345  16 C  s               113      1.285344  11 N  s         
   128      1.285255  12 N  s                78      1.089689   6 C  s         
     3     -1.052202   1 N  s                18     -1.052100   2 N  s         
   143     -0.876171  13 C  s               164      0.720294  14 C  pz        
   179      0.721491  15 C  pz               33      0.715895   3 C  s         

 Vector   60  Occ=0.000000D+00  E= 2.174400D-01
              MO Center=  2.6D-04,  6.1D-01, -7.3D-02, r^2= 1.4D+01
   Bfn.  Coefficient  Atom+Function         Bfn.  Coefficient  Atom+Function  
  ----- ------------  ---------------      ----- ------------  ---------------
    78     -1.362116   6 C  s                 3      1.281633   1 N  s         
    18      1.282190   2 N  s               188     -1.118578  16 C  s         
   113      1.048429  11 N  s               128      1.047646  12 N  s         
    33     -0.880247   3 C  s               143     -0.721004  13 C  s         
    54     -0.717360   4 C  pz               69     -0.717696   5 C  pz        

 Vector   61  Occ=0.000000D+00  E= 3.045552D-01
              MO Center=  2.4D-04, -9.8D-01, -2.5D-02, r^2= 1.5D+01
   Bfn.  Coefficient  Atom+Function         Bfn.  Coefficient  Atom+Function  
  ----- ------------  ---------------      ----- ------------  ---------------
   147      1.706458  13 C  px              192      1.364980  16 C  px        
   158     -1.300022  14 C  s               173      1.300089  15 C  s         
    37      1.250460   3 C  px               82      1.002918   6 C  px        
    48      0.953936   4 C  s                63     -0.953718   5 C  s         
   113     -0.935334  11 N  s               128      0.935290  12 N  s         

 Vector   62  Occ=0.000000D+00  E= 3.046819D-01
              MO Center= -1.2D-04,  9.8D-01,  2.4D-02, r^2= 1.5D+01
   Bfn.  Coefficient  Atom+Function         Bfn.  Coefficient  Atom+Function  
  ----- ------------  ---------------      ----- ------------  ---------------
    37      1.710119   3 C  px               82      1.359210   6 C  px        
    48      1.298718   4 C  s                63     -1.299149   5 C  s         
   147     -1.255424  13 C  px              192     -0.994994  16 C  px        
   158      0.952648  14 C  s               173     -0.951959  15 C  s         
     3      0.935059   1 N  s                18     -0.934665   2 N  s         

 Vector   63  Occ=0.000000D+00  E= 3.074405D-01
              MO Center= -1.7D-04, -4.2D-01,  3.6D-02, r^2= 1.4D+01
   Bfn.  Coefficient  Atom+Function         Bfn.  Coefficient  Atom+Function  
  ----- ------------  ---------------      ----- ------------  ---------------
   143      1.802594  13 C  s                33      1.573397   3 C  s         
   188     -1.566239  16 C  s                78     -1.364246   6 C  s         
   149      0.701531  13 C  pz              162     -0.691818  14 C  px        
   177      0.690716  15 C  px              117      0.643769  11 N  px        
   132     -0.644463  12 N  px              194      0.642888  16 C  pz        

 Vector   64  Occ=0.000000D+00  E= 3.077143D-01
              MO Center=  1.7D-04,  4.2D-01, -3.6D-02, r^2= 1.4D+01
   Bfn.  Coefficient  Atom+Function         Bfn.  Coefficient  Atom+Function  
  ----- ------------  ---------------      ----- ------------  ---------------
    33      1.808648   3 C  s                78     -1.581220   6 C  s         
   143     -1.580208  13 C  s               188      1.381349  16 C  s         
    39     -0.703044   3 C  pz               52      0.696702   4 C  px        
    67     -0.696420   5 C  px               84     -0.650651   6 C  pz        
     7     -0.646056   1 N  px               22      0.646270   2 N  px        

 Vector   65  Occ=0.000000D+00  E= 3.390853D-01
              MO Center= -1.6D-04, -2.4D-01,  3.3D-02, r^2= 1.4D+01
   Bfn.  Coefficient  Atom+Function         Bfn.  Coefficient  Atom+Function  
  ----- ------------  ---------------      ----- ------------  ---------------
   188     -2.658795  16 C  s                78      2.457579   6 C  s         
   158      2.387569  14 C  s               173      2.387639  15 C  s         
    48     -2.205376   4 C  s                63     -2.205235   5 C  s         
   194      1.964915  16 C  pz               84      1.811192   6 C  pz        
   162     -1.414223  14 C  px              177      1.415249  15 C  px        

 Vector   66  Occ=0.000000D+00  E= 3.395487D-01
              MO Center= -1.3D-04,  2.4D-01, -3.2D-02, r^2= 1.4D+01
   Bfn.  Coefficient  Atom+Function         Bfn.  Coefficient  Atom+Function  
  ----- ------------  ---------------      ----- ------------  ---------------
    78      2.638872   6 C  s               188      2.436131  16 C  s         
    48     -2.385858   4 C  s                63     -2.385918   5 C  s         
   158     -2.203458  14 C  s               173     -2.203498  15 C  s         
    84      1.949878   6 C  pz              194     -1.804736  16 C  pz        
    52     -1.408709   4 C  px               67      1.408868   5 C  px        

 Vector   67  Occ=0.000000D+00  E= 3.488958D-01
              MO Center= -3.4D-05, -9.9D-01,  3.8D-02, r^2= 1.6D+01
   Bfn.  Coefficient  Atom+Function         Bfn.  Coefficient  Atom+Function  
  ----- ------------  ---------------      ----- ------------  ---------------
   192      2.311683  16 C  px              164     -1.880323  14 C  pz        
   179      1.882511  15 C  pz               82     -1.677983   6 C  px        
   147     -1.571812  13 C  px               54      1.361156   4 C  pz        
    69     -1.361301   5 C  pz               37      1.138543   3 C  px        
   162      1.093369  14 C  px              177      1.088803  15 C  px        

 Vector   68  Occ=0.000000D+00  E= 3.490028D-01
              MO Center= -2.4D-05,  9.9D-01, -3.8D-02, r^2= 1.6D+01
   Bfn.  Coefficient  Atom+Function         Bfn.  Coefficient  Atom+Function  
  ----- ------------  ---------------      ----- ------------  ---------------
    82      2.307633   6 C  px               54     -1.876411   4 C  pz        
    69      1.876586   5 C  pz              192      1.672381  16 C  px        
    37     -1.576181   3 C  px              164     -1.363523  14 C  pz        
   179      1.365065  15 C  pz              147     -1.144527  13 C  px        
    52      1.087814   4 C  px               67      1.087567   5 C  px        

 Vector   69  Occ=0.000000D+00  E= 4.327747D-01
              MO Center= -3.4D-04, -1.9D-02, -1.9D-03, r^2= 1.2D+01
   Bfn.  Coefficient  Atom+Function         Bfn.  Coefficient  Atom+Function  
  ----- ------------  ---------------      ----- ------------  ---------------
    78      0.901094   6 C  s               188      0.889218  16 C  s         
    33     -0.590525   3 C  s               143     -0.582341  13 C  s         
    84      0.528291   6 C  pz              194     -0.523092  16 C  pz        
   107      0.423266  10 H  s               217      0.417799  20 H  s         
    39      0.392570   3 C  pz              149     -0.389926  13 C  pz        

 Vector   70  Occ=0.000000D+00  E= 4.339055D-01
              MO Center= -6.1D-04, -1.5D-01,  5.6D-02, r^2= 1.4D+01
   Bfn.  Coefficient  Atom+Function         Bfn.  Coefficient  Atom+Function  
  ----- ------------  ---------------      ----- ------------  ---------------
   188     -1.343168  16 C  s                78      1.279128   6 C  s         
   143      0.890331  13 C  s                33     -0.848003   3 C  s         
   194      0.693898  16 C  pz               84      0.659251   6 C  pz        
   217     -0.632284  20 H  s               107      0.602037  10 H  s         
   162     -0.428039  14 C  px              177      0.427344  15 C  px        

 Vector   71  Occ=0.000000D+00  E= 4.347741D-01
              MO Center= -4.0D-04,  1.4D-01, -4.7D-02, r^2= 1.5D+01
   Bfn.  Coefficient  Atom+Function         Bfn.  Coefficient  Atom+Function  
  ----- ------------  ---------------      ----- ------------  ---------------
    78      1.124336   6 C  s               188      1.064083  16 C  s         
    33     -0.741278   3 C  s               143     -0.701185  13 C  s         
    84      0.555370   6 C  pz              107      0.531011  10 H  s         
   194     -0.526752  16 C  pz              217      0.502631  20 H  s         
    38      0.387137   3 C  py              148     -0.369108  13 C  py        

 Vector   72  Occ=0.000000D+00  E= 4.372368D-01
              MO Center= -2.7D-04,  1.8D-02, -3.3D-03, r^2= 1.2D+01
   Bfn.  Coefficient  Atom+Function         Bfn.  Coefficient  Atom+Function  
  ----- ------------  ---------------      ----- ------------  ---------------
    78      0.480085   6 C  s               188     -0.464317  16 C  s         
   148     -0.332414  13 C  py               38     -0.330468   3 C  py        
    35      0.321581   3 C  py              145      0.321158  13 C  py        
    50      0.319095   4 C  py               65      0.319067   5 C  py        
   160      0.317909  14 C  py              175      0.318018  15 C  py        

 Vector   73  Occ=0.000000D+00  E= 4.603153D-01
              MO Center= -5.0D-04, -1.6D-01,  5.5D-02, r^2= 1.3D+01
   Bfn.  Coefficient  Atom+Function         Bfn.  Coefficient  Atom+Function  
  ----- ------------  ---------------      ----- ------------  ---------------
   192      0.729051  16 C  px               82      0.689266   6 C  px        
   147     -0.472540  13 C  px              189     -0.472172  16 C  px        
    37     -0.447157   3 C  px               79     -0.446844   6 C  px        
   158      0.333387  14 C  s               173     -0.333446  15 C  s         
    48     -0.316021   4 C  s                63      0.316002   5 C  s         

 Vector   74  Occ=0.000000D+00  E= 4.609364D-01
              MO Center= -4.2D-04,  1.5D-01, -5.3D-02, r^2= 1.3D+01
   Bfn.  Coefficient  Atom+Function         Bfn.  Coefficient  Atom+Function  
  ----- ------------  ---------------      ----- ------------  ---------------
    82      0.739725   6 C  px              192     -0.700645  16 C  px        
    37     -0.476009   3 C  px               79     -0.471884   6 C  px        
   147      0.450743  13 C  px              189      0.446541  16 C  px        
    48     -0.324798   4 C  s                63      0.324815   5 C  s         
   158     -0.306826  14 C  s               173      0.306859  15 C  s         

 Vector   75  Occ=0.000000D+00  E= 4.883831D-01
              MO Center= -2.8D-05, -5.5D-01,  2.3D-02, r^2= 1.5D+01
   Bfn.  Coefficient  Atom+Function         Bfn.  Coefficient  Atom+Function  
  ----- ------------  ---------------      ----- ------------  ---------------
   164      0.778593  14 C  pz              179      0.779081  15 C  pz        
   143      0.688274  13 C  s                54     -0.652460   4 C  pz        
    69     -0.652499   5 C  pz               33      0.579023   3 C  s         
   202      0.486869  17 H  s               188     -0.424810  16 C  s         
   149      0.414128  13 C  pz               92      0.408008   7 H  s         

 Vector   76  Occ=0.000000D+00  E= 4.885794D-01
              MO Center= -8.9D-06,  5.5D-01, -2.3D-02, r^2= 1.5D+01
   Bfn.  Coefficient  Atom+Function         Bfn.  Coefficient  Atom+Function  
  ----- ------------  ---------------      ----- ------------  ---------------
    54      0.776012   4 C  pz               69      0.776043   5 C  pz        
    33     -0.682752   3 C  s               164      0.652854  14 C  pz        
   179      0.653235  15 C  pz              143      0.572429  13 C  s         
    92     -0.491217   7 H  s                78      0.429609   6 C  s         
    39      0.411485   3 C  pz              202      0.413229  17 H  s         

 Vector   77  Occ=0.000000D+00  E= 5.000517D-01
              MO Center=  2.2D-04, -5.2D-01, -3.3D-02, r^2= 1.5D+01
   Bfn.  Coefficient  Atom+Function         Bfn.  Coefficient  Atom+Function  
  ----- ------------  ---------------      ----- ------------  ---------------
   148      0.737467  13 C  py               38     -0.629434   3 C  py        
   145     -0.539414  13 C  py              193     -0.469126  16 C  py        
    35      0.460531   3 C  py               83      0.396706   6 C  py        
   190      0.362570  16 C  py               80     -0.306569   6 C  py        
   149     -0.294515  13 C  pz               39      0.254493   3 C  pz        

 Vector   78  Occ=0.000000D+00  E= 5.002828D-01
              MO Center=  1.1D-04,  5.3D-01,  3.2D-02, r^2= 1.5D+01
   Bfn.  Coefficient  Atom+Function         Bfn.  Coefficient  Atom+Function  
  ----- ------------  ---------------      ----- ------------  ---------------
    38      0.720199   3 C  py              148      0.612857  13 C  py        
    35     -0.525616   3 C  py               83     -0.481014   6 C  py        
   145     -0.447025  13 C  py              193     -0.413067  16 C  py        
    80      0.372738   6 C  py              190      0.320360  16 C  py        
    39     -0.299456   3 C  pz              149     -0.251214  13 C  pz        

 Vector   79  Occ=0.000000D+00  E= 5.073282D-01
              MO Center= -3.5D-04, -2.9D-02,  7.4D-03, r^2= 1.3D+01
   Bfn.  Coefficient  Atom+Function         Bfn.  Coefficient  Atom+Function  
  ----- ------------  ---------------      ----- ------------  ---------------
   163      0.597375  14 C  py              178     -0.597244  15 C  py        
    53      0.591831   4 C  py               68     -0.591817   5 C  py        
   160     -0.437499  14 C  py              175      0.437405  15 C  py        
    50     -0.432787   4 C  py               65      0.432738   5 C  py        
   164     -0.291713  14 C  pz              179      0.291768  15 C  pz        

 Vector   80  Occ=0.000000D+00  E= 5.090748D-01
              MO Center=  5.0D-04, -7.6D-01, -1.1D-01, r^2= 1.5D+01
   Bfn.  Coefficient  Atom+Function         Bfn.  Coefficient  Atom+Function  
  ----- ------------  ---------------      ----- ------------  ---------------
   113      0.942476  11 N  s               128     -0.942470  12 N  s         
   147     -0.910442  13 C  px              192     -0.795574  16 C  px        
   164      0.778900  14 C  pz              179     -0.779288  15 C  pz        
     3      0.750904   1 N  s                18     -0.750930   2 N  s         
    37      0.725407   3 C  px               82      0.634080   6 C  px        

 Vector   81  Occ=0.000000D+00  E= 5.092289D-01
              MO Center=  2.8D-04,  7.6D-01,  1.1D-01, r^2= 1.5D+01
   Bfn.  Coefficient  Atom+Function         Bfn.  Coefficient  Atom+Function  
  ----- ------------  ---------------      ----- ------------  ---------------
     3      0.940784   1 N  s                18     -0.940805   2 N  s         
    37      0.908758   3 C  px               82      0.792895   6 C  px        
    54     -0.755773   4 C  pz               69      0.755787   5 C  pz        
   113     -0.748463  11 N  s               128      0.748495  12 N  s         
   147      0.722964  13 C  px              192      0.630465  16 C  px        

 Vector   82  Occ=0.000000D+00  E= 5.098098D-01
              MO Center=  4.9D-04, -5.2D-01, -8.0D-02, r^2= 1.6D+01
   Bfn.  Coefficient  Atom+Function         Bfn.  Coefficient  Atom+Function  
  ----- ------------  ---------------      ----- ------------  ---------------
   202      0.654337  17 H  s               158     -0.573666  14 C  s         
   173     -0.573678  15 C  s                92      0.561867   7 H  s         
   201     -0.525684  17 H  s                48     -0.492051   4 C  s         
    63     -0.492080   5 C  s                91     -0.451381   7 H  s         
   157      0.351235  14 C  s               172      0.351043  15 C  s         

 Vector   83  Occ=0.000000D+00  E= 5.100452D-01
              MO Center=  2.9D-04,  5.3D-01,  7.9D-02, r^2= 1.6D+01
   Bfn.  Coefficient  Atom+Function         Bfn.  Coefficient  Atom+Function  
  ----- ------------  ---------------      ----- ------------  ---------------
    92      0.650323   7 H  s                48     -0.573747   4 C  s         
    63     -0.573807   5 C  s               202     -0.557082  17 H  s         
    91     -0.522396   7 H  s               158      0.492092  14 C  s         
   173      0.492095  15 C  s               201      0.447508  17 H  s         
    47      0.351939   4 C  s                62      0.351598   5 C  s         

 Vector   84  Occ=0.000000D+00  E= 5.107583D-01
              MO Center= -3.6D-04,  2.8D-02, -7.2D-03, r^2= 1.3D+01
   Bfn.  Coefficient  Atom+Function         Bfn.  Coefficient  Atom+Function  
  ----- ------------  ---------------      ----- ------------  ---------------
    53      0.622144   4 C  py               68     -0.622165   5 C  py        
   163     -0.615655  14 C  py              178      0.615782  15 C  py        
    50     -0.450082   4 C  py               65      0.450129   5 C  py        
   160      0.446203  14 C  py              175     -0.446231  15 C  py        
    54     -0.233351   4 C  pz               69      0.233372   5 C  pz        

 Vector   85  Occ=0.000000D+00  E= 5.787663D-01
              MO Center= -3.8D-05, -1.5D-01,  1.3D-02, r^2= 1.5D+01
   Bfn.  Coefficient  Atom+Function         Bfn.  Coefficient  Atom+Function  
  ----- ------------  ---------------      ----- ------------  ---------------
   188      1.438669  16 C  s                78      1.366784   6 C  s         
   194     -1.068876  16 C  pz               84      1.021777   6 C  pz        
   162      1.003592  14 C  px              177     -1.002492  15 C  px        
    52     -0.953217   4 C  px               67      0.953182   5 C  px        
   217      0.805149  20 H  s               107      0.765359  10 H  s         

 Vector   86  Occ=0.000000D+00  E= 5.794547D-01
              MO Center= -8.8D-05,  1.3D-01, -9.6D-03, r^2= 1.4D+01
   Bfn.  Coefficient  Atom+Function         Bfn.  Coefficient  Atom+Function  
  ----- ------------  ---------------      ----- ------------  ---------------
    78      1.430352   6 C  s               188     -1.361349  16 C  s         
    52     -0.995112   4 C  px               67      0.994735   5 C  px        
   162     -0.947504  14 C  px              177      0.946414  15 C  px        
    84      0.888200   6 C  pz              194      0.838073  16 C  pz        
   107      0.796239  10 H  s               217     -0.757844  20 H  s         

 Vector   87  Occ=0.000000D+00  E= 5.814589D-01
              MO Center= -9.5D-04, -1.1D-01,  3.8D-02, r^2= 1.3D+01
   Bfn.  Coefficient  Atom+Function         Bfn.  Coefficient  Atom+Function  
[...]
          54     0.15232     0.10196    -0.08770    -0.09116     0.26392     0.03716
          55     0.09010     0.06039    -0.00647    -0.00713    -0.56780    -0.07987
          56     0.05997     0.04020     0.03447     0.03605     0.10421     0.01465
          57     0.15246     0.10203     0.08778     0.09120     0.26310     0.03702
          58    -0.00005    -0.00002    -0.11954    -0.12538     0.00026     0.00004
          59     0.02935     0.01955    -0.00007    -0.00007    -0.07981    -0.01097
          60     0.07435     0.04990    -0.00010    -0.00011    -0.20195    -0.02783

                   55          56          57          58          59          60
 
 P.Frequency     3155.60     3155.85     3162.47     3162.70     3207.13     3207.23
 
           1     0.00005    -0.00006     0.00004     0.00030    -0.00027     0.00020
           2    -0.00005     0.00004     0.00002     0.00010    -0.00015     0.00011
           3    -0.00009     0.00010     0.00003     0.00024    -0.00036     0.00028
           4     0.00005    -0.00006    -0.00004    -0.00030     0.00027    -0.00020
           5     0.00005    -0.00004     0.00002     0.00010    -0.00015     0.00011
           6     0.00009    -0.00010     0.00003     0.00024    -0.00036     0.00028
           7     0.00122    -0.00125     0.00000     0.00000     0.00000    -0.00000
           8     0.00000    -0.00000    -0.00398    -0.03036    -0.00085     0.00061
           9     0.00001    -0.00001    -0.00986    -0.07524    -0.00211     0.00151
          10    -0.03711     0.03858     0.00152     0.01088     0.01295    -0.00982
          11    -0.00655     0.00680     0.00033     0.00243     0.00123    -0.00094
          12    -0.01623     0.01686     0.00084     0.00603     0.00304    -0.00232
          13    -0.03714     0.03861    -0.00152    -0.01088    -0.01295     0.00982
          14     0.00656    -0.00681     0.00034     0.00243     0.00123    -0.00094
          15     0.01624    -0.01686     0.00084     0.00603     0.00304    -0.00231
          16     0.00309    -0.00323     0.00000     0.00000    -0.00000     0.00000
          17    -0.00000     0.00000    -0.00033    -0.00221     0.02458    -0.01858
          18    -0.00000     0.00000    -0.00081    -0.00550     0.06107    -0.04617
          19    -0.00014     0.00021    -0.00001    -0.00004    -0.00000     0.00000
          20    -0.00003     0.00003     0.04519     0.34541     0.00770    -0.00534
          21    -0.00007     0.00008     0.11210     0.85576     0.01886    -0.01329
          22     0.41759    -0.43401    -0.01675    -0.11955    -0.11407     0.08656
          23     0.07839    -0.08136    -0.00316    -0.02256    -0.02008     0.01524
          24     0.19412    -0.20174    -0.00783    -0.05593    -0.04975     0.03776
          25     0.41796    -0.43431     0.01677     0.11960     0.11408    -0.08656
          26    -0.07853     0.08149    -0.00317    -0.02259    -0.02010     0.01526
          27    -0.19421     0.20180    -0.00783    -0.05593    -0.04973     0.03775
          28    -0.00402     0.00415    -0.00000    -0.00000     0.00003    -0.00003
          29     0.00003    -0.00002     0.00402     0.02708    -0.27523     0.20803
          30     0.00007    -0.00005     0.00990     0.06722    -0.68369     0.51689
          31    -0.00005    -0.00006    -0.00029     0.00004     0.00020     0.00027
          32     0.00005     0.00003    -0.00010     0.00001     0.00012     0.00014
          33     0.00009     0.00010    -0.00024     0.00004     0.00027     0.00037
          34    -0.00005    -0.00006     0.00030    -0.00004    -0.00020    -0.00027
          35    -0.00005    -0.00003    -0.00010     0.00001     0.00012     0.00014
          36    -0.00009    -0.00010    -0.00024     0.00004     0.00027     0.00037
          37    -0.00127    -0.00120    -0.00009     0.00001    -0.00000    -0.00000
          38     0.00000     0.00000     0.02984    -0.00393     0.00064     0.00080
          39     0.00001     0.00001     0.07535    -0.00994     0.00161     0.00203
          40     0.03858     0.03714    -0.01114     0.00138    -0.00978    -0.01297
          41     0.00674     0.00648    -0.00244     0.00031    -0.00092    -0.00122
          42     0.01696     0.01631    -0.00617     0.00077    -0.00230    -0.00307
          43     0.03858     0.03714     0.01115    -0.00138     0.00978     0.01298
          44    -0.00668    -0.00642    -0.00243     0.00030    -0.00091    -0.00121
          45    -0.01687    -0.01622    -0.00614     0.00076    -0.00228    -0.00305
          46    -0.00321    -0.00311    -0.00001     0.00000     0.00006     0.00008
          47    -0.00000    -0.00000     0.00221    -0.00026    -0.01829    -0.02419
          48    -0.00001    -0.00001     0.00559    -0.00065    -0.04630    -0.06122
          49     0.00015     0.00020     0.00108    -0.00014     0.00002     0.00002
          50    -0.00004    -0.00005    -0.33944     0.04483    -0.00581    -0.00707
          51    -0.00011    -0.00012    -0.85697     0.11304    -0.01444    -0.01785
          52    -0.43413    -0.41774     0.12256    -0.01506     0.08607     0.11423
          53    -0.08062    -0.07746     0.02288    -0.00281     0.01499     0.01990
          54    -0.20282    -0.19515     0.05761    -0.00709     0.03772     0.05008
          55    -0.43416    -0.41783    -0.12263     0.01508    -0.08616    -0.11435
          56     0.07998     0.07686     0.02271    -0.00279     0.01488     0.01975
          57     0.20172     0.19412     0.05733    -0.00706     0.03755     0.04984
          58     0.00417     0.00400     0.00009    -0.00001    -0.00065    -0.00086
          59     0.00004     0.00003    -0.02709     0.00310     0.20488     0.27086
          60     0.00009     0.00008    -0.06844     0.00791     0.51830     0.68537



 ----------------------------------------------------------------------------
 Normal Eigenvalue ||    Projected Derivative Dipole Moments (debye/angs)
  Mode   [cm**-1]  ||      [d/dqX]             [d/dqY]           [d/dqZ]
 ------ ---------- || ------------------ ------------------ -----------------
    1       -0.000 ||       0.000              -0.000            -0.000
    2       -0.000 ||      -0.000               0.000             0.000
    3       -0.000 ||       0.000              -0.000             0.000
    4        0.000 ||       0.000               0.000             0.000
    5        0.000 ||      -0.000               0.000             0.000
    6        0.000 ||       0.000               0.000             0.000
    7       25.937 ||       0.000               0.000            -0.001
    8       34.234 ||      -0.000              -0.320             0.129
    9       37.498 ||       0.225               0.000             0.000
   10       38.337 ||      -0.004               0.000            -0.000
   11       38.689 ||      -0.042              -0.000             0.000
   12       40.059 ||      -0.000              -0.001            -0.000
   13      355.147 ||       0.000              -0.351             0.125
   14      355.317 ||       0.000              -0.001            -0.001
   15      410.120 ||      -0.003              -0.000             0.000
   16      410.165 ||       0.022              -0.000             0.000
   17      632.288 ||       0.019              -0.000            -0.000
   18      632.498 ||      -0.723              -0.000            -0.000
   19      692.440 ||       0.000              -0.159            -0.388
   20      692.570 ||       0.000               0.006             0.012
   21      740.949 ||       0.000              -0.003            -0.003
   22      742.444 ||      -0.000               1.164            -0.447
   23      824.306 ||       0.000               0.003            -0.002
   24      824.745 ||      -0.000              -0.360             0.166
   25      980.921 ||      -0.000              -0.025             0.023
   26      981.128 ||       0.000               0.003            -0.003
   27     1001.198 ||      -0.022              -0.000            -0.000
   28     1001.238 ||       0.007              -0.000             0.000
   29     1011.039 ||      -0.000               0.011             0.033
   30     1011.113 ||      -0.000               0.179             0.447
   31     1026.547 ||      -0.000               0.001             0.001
   32     1026.683 ||       0.000               0.000             0.001
   33     1081.832 ||      -0.000               0.111             0.240
   34     1082.193 ||       0.000              -0.002            -0.005
   35     1090.431 ||       0.002              -0.000            -0.000
   36     1090.590 ||       0.376               0.000             0.000
   37     1159.731 ||       0.000               0.007             0.014
   38     1159.789 ||       0.000              -0.120            -0.288
   39     1225.347 ||      -0.537              -0.000            -0.000
   40     1225.549 ||       0.017              -0.000            -0.000
   41     1262.039 ||      -0.372              -0.000            -0.000
   42     1262.173 ||      -0.012              -0.000            -0.000
   43     1380.688 ||      -0.093              -0.000            -0.000
   44     1382.371 ||      -0.001              -0.000            -0.000
   45     1429.401 ||      -0.001               0.010             0.038
   46     1429.843 ||      -0.001               0.594             1.462
   47     1488.406 ||       0.054              -0.000            -0.000
   48     1488.517 ||       0.574               0.000             0.000
   49     1617.359 ||       0.001              -0.097            -0.248
   50     1617.424 ||       0.001              -0.514            -1.255
   51     1619.997 ||       0.041              -0.001            -0.001
   52     1620.693 ||       1.890               0.001             0.001
   53     3152.657 ||       0.001              -0.247            -0.609
   54     3152.676 ||       0.000               0.188             0.455
   55     3155.604 ||       0.020               0.001             0.001
   56     3155.847 ||       1.061               0.000             0.001
   57     3162.471 ||       0.001              -0.204            -0.507
   58     3162.702 ||       0.000              -0.271            -0.661
   59     3207.128 ||       0.000               0.035             0.079
   60     3207.233 ||       0.000              -0.240            -0.578
 ----------------------------------------------------------------------------



  
  
 ----------------------------------------------------------------------------
 Normal Eigenvalue ||           Projected Infra Red Intensities
  Mode   [cm**-1]  || [atomic units] [(debye/angs)**2] [(KM/mol)] [arbitrary]
 ------ ---------- || -------------- ----------------- ---------- -----------
    1       -0.000 ||    0.000000           0.000         0.000       0.000
    2       -0.000 ||    0.000000           0.000         0.000       0.000
    3       -0.000 ||    0.000000           0.000         0.000       0.000
    4        0.000 ||    0.000000           0.000         0.000       0.000
    5        0.000 ||    0.000000           0.000         0.000       0.000
    6        0.000 ||    0.000000           0.000         0.000       0.000
    7       25.937 ||    0.000000           0.000         0.000       0.000
    8       34.234 ||    0.005175           0.119         5.044       4.769
    9       37.498 ||    0.002185           0.050         2.130       2.014
   10       38.337 ||    0.000001           0.000         0.001       0.001
   11       38.689 ||    0.000076           0.002         0.074       0.070
   12       40.059 ||    0.000000           0.000         0.000       0.000
   13      355.147 ||    0.006022           0.139         5.870       5.550
   14      355.317 ||    0.000000           0.000         0.000       0.000
   15      410.120 ||    0.000000           0.000         0.000       0.000
   16      410.165 ||    0.000022           0.001         0.021       0.020
   17      632.288 ||    0.000016           0.000         0.015       0.014
   18      632.498 ||    0.022686           0.523        22.116      20.909
   19      692.440 ||    0.007605           0.175         7.414       7.009
   20      692.570 ||    0.000008           0.000         0.008       0.007
   21      740.949 ||    0.000001           0.000         0.001       0.001
   22      742.444 ||    0.067408           1.555        65.713      62.126
   23      824.306 ||    0.000001           0.000         0.001       0.001
   24      824.745 ||    0.006798           0.157         6.627       6.266
   25      980.921 ||    0.000051           0.001         0.049       0.047
   26      981.128 ||    0.000001           0.000         0.001       0.001
   27     1001.198 ||    0.000020           0.000         0.020       0.019
   28     1001.238 ||    0.000002           0.000         0.002       0.002
   29     1011.039 ||    0.000052           0.001         0.051       0.048
   30     1011.113 ||    0.010033           0.231         9.781       9.247
   31     1026.547 ||    0.000000           0.000         0.000       0.000
   32     1026.683 ||    0.000000           0.000         0.000       0.000
   33     1081.832 ||    0.003028           0.070         2.952       2.791
   34     1082.193 ||    0.000001           0.000         0.001       0.001
   35     1090.431 ||    0.000000           0.000         0.000       0.000
   36     1090.590 ||    0.006131           0.141         5.977       5.651
   37     1159.731 ||    0.000011           0.000         0.011       0.010
   38     1159.789 ||    0.004223           0.097         4.117       3.892
   39     1225.347 ||    0.012504           0.288        12.189      11.524
   40     1225.549 ||    0.000013           0.000         0.013       0.012
   41     1262.039 ||    0.005985           0.138         5.834       5.516
   42     1262.173 ||    0.000007           0.000         0.006       0.006
   43     1380.688 ||    0.000376           0.009         0.366       0.346
   44     1382.371 ||    0.000000           0.000         0.000       0.000
   45     1429.401 ||    0.000067           0.002         0.065       0.062
   46     1429.843 ||    0.107983           2.491       105.267      99.521
   47     1488.406 ||    0.000128           0.003         0.125       0.118
   48     1488.517 ||    0.014270           0.329        13.911      13.152
   49     1617.359 ||    0.003066           0.071         2.989       2.826
   50     1617.424 ||    0.079686           1.838        77.682      73.441
   51     1619.997 ||    0.000072           0.002         0.070       0.066
   52     1620.693 ||    0.154904           3.574       151.008     142.765
   53     3152.657 ||    0.018704           0.432        18.234      17.239
   54     3152.676 ||    0.010489           0.242        10.225       9.667
   55     3155.604 ||    0.000018           0.000         0.018       0.017
   56     3155.847 ||    0.048812           1.126        47.585      44.987
   57     3162.471 ||    0.012928           0.298        12.602      11.915
   58     3162.702 ||    0.022134           0.511        21.578      20.400
   59     3207.128 ||    0.000328           0.008         0.320       0.302
   60     3207.233 ||    0.016985           0.392        16.558      15.654
 ----------------------------------------------------------------------------



 vib:animation  F

 Task  times  cpu:      580.3s     wall:      580.3s


                                NWChem Input Module
                                -------------------


 Summary of allocated global arrays
-----------------------------------
  No active global arrays


MA_summarize_allocated_blocks: starting scan ...
MA_summarize_allocated_blocks: scan completed: 0 heap blocks, 0 stack blocks
MA usage statistics:

	allocation statistics:
					      heap	     stack
					      ----	     -----
	current number of blocks	         0	         0
	maximum number of blocks	        25	        54
	current total bytes		         0	         0
	maximum total bytes		2400553504	  84446712
	maximum total K-bytes		   2400554	     84447
	maximum total M-bytes		      2401	        85


                                     CITATION
                                     --------
                Please cite the following reference when publishing
                           results obtained with NWChem:

          E. Apra, E. J. Bylaska, W. A. de Jong, N. Govind, K. Kowalski,
       T. P. Straatsma, M. Valiev, H. J. J. van Dam, Y. Alexeev, J. Anchell,
       V. Anisimov, F. W. Aquino, R. Atta-Fynn, J. Autschbach, N. P. Bauman,
     J. C. Becca, D. E. Bernholdt, K. Bhaskaran-Nair, S. Bogatko, P. Borowski,
         J. Boschen, J. Brabec, A. Bruner, E. Cauet, Y. Chen, G. N. Chuev,
      C. J. Cramer, J. Daily, M. J. O. Deegan, T. H. Dunning Jr., M. Dupuis,
   K. G. Dyall, G. I. Fann, S. A. Fischer, A. Fonari, H. Fruchtl, L. Gagliardi,
      J. Garza, N. Gawande, S. Ghosh, K. Glaesemann, A. W. Gotz, J. Hammond,
       V. Helms, E. D. Hermes, K. Hirao, S. Hirata, M. Jacquelin, L. Jensen,
   B. G. Johnson, H. Jonsson, R. A. Kendall, M. Klemm, R. Kobayashi, V. Konkov,
      S. Krishnamoorthy, M. Krishnan, Z. Lin, R. D. Lins, R. J. Littlefield,
      A. J. Logsdail, K. Lopata, W. Ma, A. V. Marenich, J. Martin del Campo,
   D. Mejia-Rodriguez, J. E. Moore, J. M. Mullin, T. Nakajima, D. R. Nascimento,
    J. A. Nichols, P. J. Nichols, J. Nieplocha, A. Otero-de-la-Roza, B. Palmer,
    A. Panyala, T. Pirojsirikul, B. Peng, R. Peverati, J. Pittner, L. Pollack,
   R. M. Richard, P. Sadayappan, G. C. Schatz, W. A. Shelton, D. W. Silverstein,
   D. M. A. Smith, T. A. Soares, D. Song, M. Swart, H. L. Taylor, G. S. Thomas,
            V. Tipparaju, D. G. Truhlar, K. Tsemekhman, T. Van Voorhis,
      A. Vazquez-Mayagoitia, P. Verma, O. Villa, A. Vishnu, K. D. Vogiatzis,
        D. Wang, J. H. Weare, M. J. Williamson, T. L. Windus, K. Wolinski,
        A. T. Wong, Q. Wu, C. Yang, Q. Yu, M. Zacharias, Z. Zhang, Y. Zhao,
                                and R. J. Harrison
                        "NWChem: Past, present, and future
                         J. Chem. Phys. 152, 184102 (2020)
                               doi:10.1063/5.0004997

                                      AUTHORS
                                      -------
  E. Apra, E. J. Bylaska, N. Govind, K. Kowalski, M. Valiev, D. Mejia-Rodriguez,
       A. Kunitsa, N. P. Bauman, A. Panyala, W. A. de Jong, T. P. Straatsma,
   H. J. J. van Dam, D. Wang, T. L. Windus, J. Hammond, J. Autschbach, A. Woods,
    K. Bhaskaran-Nair, J. Brabec, K. Lopata, S. A. Fischer, S. Krishnamoorthy,
     M. Jacquelin, W. Ma, M. Klemm, O. Villa, Y. Chen, V. Anisimov, F. Aquino,
     S. Hirata, M. T. Hackler, E. Hermes, L. Jensen, J. E. Moore, J. C. Becca,
      V. Konjkov, T. Risthaus, M. Malagoli, A. Marenich, A. Otero-de-la-Roza,
        J. Mullin, P. Nichols, R. Peverati, J. Pittner, Y. Zhao, P.-D. Fan,
        A. Fonari, M. J. Williamson, R. J. Harrison, J. R. Rehr, M. Dupuis,
     D. Silverstein, D. M. A. Smith, J. Nieplocha, V. Tipparaju, M. Krishnan,
     B. E. Van Kuiken, A. Vazquez-Mayagoitia, M. Swart, Q. Wu, T. Van Voorhis,
     A. A. Auer, M. Nooijen, L. D. Crosby, E. Brown, G. Cisneros, G. I. Fann,
   H. Fruchtl, J. Garza, K. Hirao, R. A. Kendall, J. A. Nichols, K. Tsemekhman,
    K. Wolinski, J. Anchell, D. E. Bernholdt, P. Borowski, T. Clark, D. Clerc,
   H. Dachsel, M. J. O. Deegan, K. Dyall, D. Elwood, E. Glendening, M. Gutowski,
   A. C. Hess, J. Jaffe, B. G. Johnson, J. Ju, R. Kobayashi, R. Kutteh, Z. Lin,
   R. Littlefield, X. Long, B. Meng, T. Nakajima, S. Niu, L. Pollack, M. Rosing,
   K. Glaesemann, G. Sandrone, M. Stave, H. Taylor, G. Thomas, J. H. van Lenthe,
                               A. T. Wong, Z. Zhang.

 Total times  cpu:      733.1s     wall:      733.1s
