 argument  1 = xyz67.in
                                         
                                         


             Northwest Computational Chemistry Package (NWChem) 7.2.3
             --------------------------------------------------------


                    Environmental Molecular Sciences Laboratory
                       Pacific Northwest National Laboratory
                                Richland, WA 99352

                              Copyright (c) 1994-2022
                       Pacific Northwest National Laboratory
                            Battelle Memorial Institute

             NWChem is an open-source computational chemistry package
                        distributed under the terms of the
                      Educational Community License (ECL) 2.0
             A copy of the license is included with this distribution
                              in the LICENSE.TXT file

                                  ACKNOWLEDGMENT
                                  --------------

            This software and its documentation were developed at the
            EMSL at Pacific Northwest National Laboratory, a multiprogram
            national laboratory, operated for the U.S. Department of Energy
            by Battelle under Contract Number DE-AC05-76RL01830. Support
            for this work was provided by the Department of Energy Office
            of Biological and Environmental Research, Office of Basic
            Energy Sciences, and the Office of Advanced Scientific Computing.


           Job information
           ---------------

    hostname        = gpu003
    program         = /home/rrichard/nwchem/bin/LINUX64/nwchem
    date            = Sun Jul 13 12:49:11 2025

    compiled        = Mon_Jul_07_13:04:19_2025
    source          = /home/rrichard/nwchem
    nwchem branch   = 7.2.3
    nwchem revision = v7.2.0-beta1-1473-g5687662257
    ga revision     = 5.9.2
    use scalapack   = T
    input           = xyz67.in
    prefix          = xyz67.
    data base       = ./xyz67.db
    status          = startup
    nproc           =        2
    time left       =     -1s



           Memory information
           ------------------

    heap     =    431126723 doubles =     3289.2 Mbytes
    stack    =    431126727 doubles =     3289.2 Mbytes
    global   =    246358129 doubles =     1879.6 Mbytes (distinct from heap & stack)
    total    =   1108611579 doubles =     8458.0 Mbytes
    verify   = yes
    hardfail = no 


           Directory information
           ---------------------

  0 permanent = .
  0 scratch   = .




                                NWChem Input Module
                                -------------------



 Scaling coordinates for geometry "geometry" by  1.889725989
 (inverse scale =  0.529177249)

 C1  symmetry detected

          ------
          auto-z
          ------
  no constraints, skipping    0.0000000000000000     
  no constraints, skipping    0.0000000000000000     


                             Geometry "geometry" -> ""
                             -------------------------

 Output coordinates in angstroms (scale by  1.889725989 to convert to a.u.)

  No.       Tag          Charge          X              Y              Z
 ---- ---------------- ---------- -------------- -------------- --------------
    1 C                    6.0000    -0.47379297     1.40658709     0.68538757
    2 C                    6.0000    -1.43675803     0.13575858     0.63358357
    3 C                    6.0000     0.42913358    -1.96102760    -0.10502129
    4 C                    6.0000     0.69937793     0.45051479     0.28540559
    5 H                    1.0000    -2.32045767     2.78023032     0.04398811
    6 H                    1.0000    -0.07465483     1.74898148     1.75805118
    7 H                    1.0000    -1.95262064    -0.06850627    -0.29958715
    8 H                    1.0000    -2.03452494    -0.25999428     1.55384133
    9 H                    1.0000     1.47552245    -1.92502884    -0.58699489
   10 N                    7.0000    -0.04472790    -0.76133887     0.54224737
   11 S                   16.0000    -1.03737168     2.63230031    -0.53721876
   12 S                   16.0000    -0.58448227    -3.18829577    -0.32069780
   13 S                   16.0000     2.24135819     0.73491375    -0.09590611

      Atomic Mass 
      ----------- 

      C                 12.000000
      H                  1.007825
      N                 14.003070
      S                 31.972070


 Effective nuclear repulsion energy (a.u.)     550.1523240014

            Nuclear Dipole moment (a.u.) 
            ----------------------------
        X                 Y               Z
 ---------------- ---------------- ----------------
     0.0000000000    -0.0000000000    -0.0000000000



                                Z-matrix (autoz)
                                -------- 

 Units are Angstrom for bonds and degrees for angles

      Type          Name      I     J     K     L     M      Value
      ----------- --------  ----- ----- ----- ----- ----- ----------
    1 Stretch                  1     2                       1.59530
    2 Stretch                  1     4                       1.56537
    3 Stretch                  1     6                       1.19463
    4 Stretch                  1    11                       1.82065
    5 Stretch                  2     7                       1.08565
    6 Stretch                  2     8                       1.16654
    7 Stretch                  2    10                       1.65858
    8 Stretch                  3     9                       1.15262
    9 Stretch                  3    10                       1.44318
   10 Stretch                  3    12                       1.60628
   11 Stretch                  4    10                       1.44508
   12 Stretch                  4    13                       1.61369
   13 Stretch                  5    11                       1.41633
   14 Bend                     1     2     7               117.68517
   15 Bend                     1     2     8               123.63826
   16 Bend                     1     2    10                85.75864
   17 Bend                     1     4    10                94.63831
   18 Bend                     1     4    13               131.98111
   19 Bend                     1    11     5                94.31135
   20 Bend                     2     1     4                87.56720
   21 Bend                     2     1     6               117.33224
   22 Bend                     2     1    11               109.12567
   23 Bend                     2    10     3               138.58222
   24 Bend                     2    10     4                89.33364
   25 Bend                     3    10     4               116.63677
   26 Bend                     4     1     6                98.86362
   27 Bend                     4     1    11               118.13747
   28 Bend                     6     1    11               120.89252
   29 Bend                     7     2     8               111.76251
   30 Bend                     7     2    10               104.45971
   31 Bend                     8     2    10               106.85926
   32 Bend                     9     3    10               117.36562
   33 Bend                     9     3    12               122.72409
   34 Bend                    10     3    12               119.21987
   35 Bend                    10     4    13               132.98754
   36 Torsion                  1     2    10     3        -144.04418
   37 Torsion                  1     2    10     4         -12.39500
   38 Torsion                  1     4    10     2          12.64278
   39 Torsion                  1     4    10     3         159.06846
   40 Torsion                  2     1     4    10         -13.16421
   41 Torsion                  2     1     4    13         173.49714
   42 Torsion                  2     1    11     5          59.72743
   43 Torsion                  2    10     3     9         136.10515
   44 Torsion                  2    10     3    12         -34.63600
   45 Torsion                  2    10     4    13        -174.12710
   46 Torsion                  3    10     2     7         -26.52758
   47 Torsion                  3    10     2     8          92.04231
   48 Torsion                  3    10     4    13         -27.70143
   49 Torsion                  4     1     2     7         -92.67488
   50 Torsion                  4     1     2     8         118.89428
   51 Torsion                  4     1     2    10          11.43874
   52 Torsion                  4     1    11     5         157.45757
   53 Torsion                  4    10     2     7         105.12160
   54 Torsion                  4    10     2     8        -136.30851
   55 Torsion                  4    10     3     9          12.81415
   56 Torsion                  4    10     3    12        -157.92700
   57 Torsion                  5    11     1     6         -80.96895
   58 Torsion                  6     1     2     7         168.60289
   59 Torsion                  6     1     2     8          20.17205
   60 Torsion                  6     1     2    10         -87.28349
   61 Torsion                  6     1     4    10         104.12567
   62 Torsion                  6     1     4    13         -69.21298
   63 Torsion                  7     2     1    11          26.32822
   64 Torsion                  8     2     1    11        -122.10261
   65 Torsion                 10     2     1    11         130.44185
   66 Torsion                 10     4     1    11        -123.60051
   67 Torsion                 11     1     4    13          63.06084


            XYZ format geometry
            -------------------
    13
 geometry
 C                    -0.47379297     1.40658709     0.68538757
 C                    -1.43675803     0.13575858     0.63358357
 C                     0.42913358    -1.96102760    -0.10502129
 C                     0.69937793     0.45051479     0.28540559
 H                    -2.32045767     2.78023032     0.04398811
 H                    -0.07465483     1.74898148     1.75805118
 H                    -1.95262064    -0.06850627    -0.29958715
 H                    -2.03452494    -0.25999428     1.55384133
 H                     1.47552245    -1.92502884    -0.58699489
 N                    -0.04472790    -0.76133887     0.54224737
 S                    -1.03737168     2.63230031    -0.53721876
 S                    -0.58448227    -3.18829577    -0.32069780
 S                     2.24135819     0.73491375    -0.09590611

 ==============================================================================
                                internuclear distances
 ------------------------------------------------------------------------------
       center one      |      center two      | atomic units |  angstroms
 ------------------------------------------------------------------------------
    2 C                |   1 C                |     3.01468  |     1.59530
    4 C                |   1 C                |     2.95812  |     1.56537
    7 H                |   2 C                |     2.05159  |     1.08565
    8 H                |   2 C                |     2.20444  |     1.16654
    9 H                |   3 C                |     2.17813  |     1.15262
   10 N                |   3 C                |     2.72721  |     1.44318
   10 N                |   4 C                |     2.73080  |     1.44508
   11 S                |   1 C                |     3.44053  |     1.82065
   11 S                |   5 H                |     2.67648  |     1.41633
   12 S                |   3 C                |     3.03542  |     1.60628
   13 S                |   4 C                |     3.04943  |     1.61369
 ------------------------------------------------------------------------------
                         number of included internuclear distances:         11
 ==============================================================================



 ==============================================================================
                                 internuclear angles
 ------------------------------------------------------------------------------
        center 1       |       center 2       |       center 3       |  degrees
 ------------------------------------------------------------------------------
    2 C                |   1 C                |   4 C                |    87.57
    2 C                |   1 C                |  11 S                |   109.13
    4 C                |   1 C                |  11 S                |   118.14
    1 C                |   2 C                |   7 H                |   117.69
    1 C                |   2 C                |   8 H                |   123.64
    7 H                |   2 C                |   8 H                |   111.76
    9 H                |   3 C                |  10 N                |   117.37
    9 H                |   3 C                |  12 S                |   122.72
   10 N                |   3 C                |  12 S                |   119.22
    1 C                |   4 C                |  10 N                |    94.64
    1 C                |   4 C                |  13 S                |   131.98
   10 N                |   4 C                |  13 S                |   132.99
    3 C                |  10 N                |   4 C                |   116.64
    1 C                |  11 S                |   5 H                |    94.31
 ------------------------------------------------------------------------------
                            number of included internuclear angles:         14
 ==============================================================================





 Summary of "ao basis" -> "" (cartesian)
 ------------------------------------------------------------------------------
       Tag                 Description            Shells   Functions and Types
 ---------------- ------------------------------  ------  ---------------------
 *                          cc-pvdz                   on all atoms 




                           NWChem Geometry Optimization
                           ----------------------------


  no constraints, skipping    0.0000000000000000     
 maximum gradient threshold         (gmax) =   0.000450
 rms gradient threshold             (grms) =   0.000300
 maximum cartesian step threshold   (xmax) =   0.001800
 rms cartesian step threshold       (xrms) =   0.001200
 fixed trust radius                (trust) =   0.300000
 maximum step size to saddle      (sadstp) =   0.100000
 energy precision                  (eprec) =   5.0D-06
 maximum number of steps          (nptopt) =   40
 initial hessian option           (inhess) =    0
 line search option               (linopt) =    1
 hessian update option            (modupd) =    1
 saddle point option              (modsad) =    0
 initial eigen-mode to follow     (moddir) =    0
 initial variable to follow       (vardir) =    0
 follow first negative mode     (firstneg) =    T
 apply conjugacy                    (opcg) =    F
 source of zmatrix                         =   autoz   


          -------------------
          Energy Minimization
          -------------------


 Names of Z-matrix variables 
    1              2              3              4              5         
    6              7              8              9             10         
   11             12             13             14             15         
   16             17             18             19             20         
   21             22             23             24             25         
   26             27             28             29             30         
   31             32             33             34             35         
   36             37             38             39             40         
   41             42             43             44             45         
   46             47             48             49             50         
   51             52             53             54             55         
   56             57             58             59             60         
   61             62             63             64             65         
   66             67         

 Variables with the same non-blank name are constrained to be equal


 Using diagonal initial Hessian 
 Scaling for Hessian diagonals: bonds = 1.00  angles = 0.25  torsions = 0.10

          --------
          Step   0
          --------


                         Geometry "geometry" -> "geometry"
                         ---------------------------------

 Output coordinates in angstroms (scale by  1.889725989 to convert to a.u.)

  No.       Tag          Charge          X              Y              Z
 ---- ---------------- ---------- -------------- -------------- --------------
    1 C                    6.0000    -0.47379297     1.40658709     0.68538757
    2 C                    6.0000    -1.43675803     0.13575858     0.63358357
    3 C                    6.0000     0.42913358    -1.96102760    -0.10502129
    4 C                    6.0000     0.69937793     0.45051479     0.28540559
    5 H                    1.0000    -2.32045767     2.78023032     0.04398811
    6 H                    1.0000    -0.07465483     1.74898148     1.75805118
    7 H                    1.0000    -1.95262064    -0.06850627    -0.29958715
    8 H                    1.0000    -2.03452494    -0.25999428     1.55384133
    9 H                    1.0000     1.47552245    -1.92502884    -0.58699489
   10 N                    7.0000    -0.04472790    -0.76133887     0.54224737
   11 S                   16.0000    -1.03737168     2.63230031    -0.53721876
   12 S                   16.0000    -0.58448227    -3.18829577    -0.32069780
   13 S                   16.0000     2.24135819     0.73491375    -0.09590611

      Atomic Mass 
      ----------- 

      C                 12.000000
      H                  1.007825
      N                 14.003070
      S                 31.972070


 Effective nuclear repulsion energy (a.u.)     550.1523240014

            Nuclear Dipole moment (a.u.) 
            ----------------------------
        X                 Y               Z
 ---------------- ---------------- ----------------
     0.0000000000    -0.0000000000    -0.0000000000


                                 NWChem DFT Module
                                 -----------------


                      Basis "ao basis" -> "ao basis" (cartesian)
                      -----
  C (Carbon)
  ----------
            Exponent  Coefficients 
       -------------- ---------------------------------------------------------
  1 S  6.66500000E+03  0.000692
  1 S  1.00000000E+03  0.005329
  1 S  2.28000000E+02  0.027077
  1 S  6.47100000E+01  0.101718
  1 S  2.10600000E+01  0.274740
  1 S  7.49500000E+00  0.448564
  1 S  2.79700000E+00  0.285074
  1 S  5.21500000E-01  0.015204

  2 S  6.66500000E+03 -0.000146
  2 S  1.00000000E+03 -0.001154
  2 S  2.28000000E+02 -0.005725
  2 S  6.47100000E+01 -0.023312
  2 S  2.10600000E+01 -0.063955
  2 S  7.49500000E+00 -0.149981
  2 S  2.79700000E+00 -0.127262
  2 S  5.21500000E-01  0.544529

  3 S  1.59600000E-01  1.000000

  4 P  9.43900000E+00  0.038109
  4 P  2.00200000E+00  0.209480
  4 P  5.45600000E-01  0.508557

  5 P  1.51700000E-01  1.000000

  6 D  5.50000000E-01  1.000000

  H (Hydrogen)
  ------------
            Exponent  Coefficients 
       -------------- ---------------------------------------------------------
  1 S  1.30100000E+01  0.019685
  1 S  1.96200000E+00  0.137977
  1 S  4.44600000E-01  0.478148

  2 S  1.22000000E-01  1.000000

  3 P  7.27000000E-01  1.000000

  N (Nitrogen)
  ------------
            Exponent  Coefficients 
       -------------- ---------------------------------------------------------
  1 S  9.04600000E+03  0.000700
  1 S  1.35700000E+03  0.005389
  1 S  3.09300000E+02  0.027406
  1 S  8.77300000E+01  0.103207
  1 S  2.85600000E+01  0.278723
  1 S  1.02100000E+01  0.448540
  1 S  3.83800000E+00  0.278238
  1 S  7.46600000E-01  0.015440

  2 S  9.04600000E+03 -0.000153
  2 S  1.35700000E+03 -0.001208
  2 S  3.09300000E+02 -0.005992
  2 S  8.77300000E+01 -0.024544
  2 S  2.85600000E+01 -0.067459
  2 S  1.02100000E+01 -0.158078
  2 S  3.83800000E+00 -0.121831
  2 S  7.46600000E-01  0.549003

  3 S  2.24800000E-01  1.000000

  4 P  1.35500000E+01  0.039919
  4 P  2.91700000E+00  0.217169
  4 P  7.97300000E-01  0.510319

  5 P  2.18500000E-01  1.000000

  6 D  8.17000000E-01  1.000000

  S (Sulphur)
  -----------
            Exponent  Coefficients 
       -------------- ---------------------------------------------------------
  1 S  1.10800000E+05  0.000248
  1 S  1.66100000E+04  0.001920
  1 S  3.78100000E+03  0.009962
  1 S  1.07100000E+03  0.040298
  1 S  3.49800000E+02  0.128604
  1 S  1.26300000E+02  0.303480
  1 S  4.92600000E+01  0.421432
  1 S  2.01600000E+01  0.230781
  1 S  5.72000000E+00  0.017897
  1 S  2.18200000E+00 -0.002975
  1 S  4.32700000E-01  0.000850

  2 S  1.10800000E+05 -0.000069
  2 S  1.66100000E+04 -0.000528
  2 S  3.78100000E+03 -0.002797
  2 S  1.07100000E+03 -0.011265
  2 S  3.49800000E+02 -0.038883
  2 S  1.26300000E+02 -0.099503
  2 S  4.92600000E+01 -0.199740
  2 S  2.01600000E+01 -0.123360
  2 S  5.72000000E+00  0.513194
  2 S  2.18200000E+00  0.607120
  2 S  4.32700000E-01  0.039675

  3 S  1.10800000E+05  0.000020
  3 S  1.66100000E+04  0.000153
  3 S  3.78100000E+03  0.000810
  3 S  1.07100000E+03  0.003290
  3 S  3.49800000E+02  0.011297
  3 S  1.26300000E+02  0.029639
  3 S  4.92600000E+01  0.059985
  3 S  2.01600000E+01  0.041325
  3 S  5.72000000E+00 -0.207474
  3 S  2.18200000E+00 -0.392889
  3 S  4.32700000E-01  0.632840

  4 S  1.57000000E-01  1.000000

  5 P  3.99700000E+02  0.004475
  5 P  9.41900000E+01  0.034171
  5 P  2.97500000E+01  0.144250
  5 P  1.07700000E+01  0.353928
  5 P  4.11900000E+00  0.459085
  5 P  1.62500000E+00  0.206383
  5 P  4.72600000E-01  0.010214

  6 P  3.99700000E+02 -0.001163
  6 P  9.41900000E+01 -0.008657
  6 P  2.97500000E+01 -0.039089
  6 P  1.07700000E+01 -0.093463
  6 P  4.11900000E+00 -0.147994
  6 P  1.62500000E+00  0.030190
  6 P  4.72600000E-01  0.561573

  7 P  1.40700000E-01  1.000000

  8 D  4.79000000E-01  1.000000



 Summary of "ao basis" -> "ao basis" (cartesian)
 ------------------------------------------------------------------------------
       Tag                 Description            Shells   Functions and Types
 ---------------- ------------------------------  ------  ---------------------
 C                          cc-pvdz                  6       15   3s2p1d
 H                          cc-pvdz                  3        5   2s1p
 N                          cc-pvdz                  6       15   3s2p1d
 S                          cc-pvdz                  8       19   4s3p1d




 Summary of "ao basis" -> "ao basis" (cartesian)
 ------------------------------------------------------------------------------
       Tag                 Description            Shells   Functions and Types
 ---------------- ------------------------------  ------  ---------------------
 C                          cc-pvdz                  6       15   3s2p1d
 H                          cc-pvdz                  3        5   2s1p
 N                          cc-pvdz                  6       15   3s2p1d
 S                          cc-pvdz                  8       19   4s3p1d


  Caching 1-el integrals 

            General Information
            -------------------
          SCF calculation type: DFT
          Wavefunction type:  closed shell.
          No. of atoms     :    13
          No. of electrons :    84
           Alpha electrons :    42
            Beta electrons :    42
          Charge           :     0
          Spin multiplicity:     1
          Use of symmetry is: off; symmetry adaption is: off
          Maximum number of iterations:  50
          AO basis - number of functions:   157
                     number of shells:    69
          Convergence on energy requested:  1.00D-06
          Convergence on density requested:  1.00D-05
          Convergence on gradient requested:  5.00D-04

              XC Information
              --------------
                         B3LYP Method XC Potential
                     Hartree-Fock (Exact) Exchange  0.200          
                        Slater Exchange Functional  0.800 local    
                    Becke 1988 Exchange Functional  0.720 non-local
              Lee-Yang-Parr Correlation Functional  0.810          
                  VWN I RPA Correlation Functional  0.190 local    

             Grid Information
             ----------------
          Grid used for XC integration:  medium    
          Radial quadrature: Mura-Knowles        
          Angular quadrature: Lebedev. 
          Tag              B.-S. Rad. Rad. Pts. Rad. Cut. Ang. Pts.
          ---              ---------- --------- --------- ---------
          C                   0.70       49          13.0       434
          H                   0.35       45          14.0       434
          N                   0.65       49          11.0       434
          S                   1.00       88          14.0       590
          Grid pruning is: on 
          Number of quadrature shells:   734
          Spatial weights used:  Erf1

          Convergence Information
          -----------------------
          Convergence aids based upon iterative change in 
          total energy or number of iterations. 
          Levelshifting, if invoked, occurs when the 
          HOMO/LUMO gap drops below (HL_TOL):  1.00D-02
          DIIS, if invoked, will attempt to extrapolate 
          using up to (NFOCK): 10 stored Fock matrices.

                    Damping( 0%)  Levelshifting(0.5)       DIIS
                  --------------- ------------------- ---------------
          dE  on:    start            ASAP                start   
          dE off:    2 iters         50 iters            50 iters 


      Screening Tolerance Information
      -------------------------------
          Density screening/tol_rho:  1.00D-10
          AO Gaussian exp screening on grid/accAOfunc:  14
          CD Gaussian exp screening on grid/accCDfunc:  20
          XC Gaussian exp screening on grid/accXCfunc:  20
          Schwarz screening/accCoul:  1.00D-08


      Superposition of Atomic Density Guess
      -------------------------------------

 Sum of atomic energies:       -1399.89371810

      Non-variational initial energy
      ------------------------------

 Total energy =   -1403.365664
 1-e energy   =   -3023.686909
 2-e energy   =    1070.168921
 HOMO         =      -0.246837
 LUMO         =      -0.055093

   Time after variat. SCF:      1.8
   Time prior to 1st pass:      1.8
 Shared filesystem for scratch_dir 

 Integral file          = ./xyz67.aoints.0
 Record size in doubles =    65536    No. of integs per rec  =    43688
 Max. records in memory =     1191    Max. records in file   = 22914994
 No. of bits per label  =        8    No. of bits per value  =       64


 #quartets = 2.295D+06 #integrals = 5.361D+07 #direct =  0.0% #cached =100.0%


File balance: exchanges=     1  moved=    44  time=   0.0

 Shared filesystem for scratch_dir 

 Grid_pts file          = ./xyz67.gridpts.0
 Record size in doubles =  12289        No. of grid_pts per rec  =   3070
 Max. records in memory =     79        Max. recs in file   = 122203363


           Memory utilization after 1st SCF pass: 
           Heap Space remaining (MW):      352.07           352066243
          Stack Space remaining (MW):      431.13           431125564

   convergence    iter        energy       DeltaE   RMS-Dens  Diis-err    time
 ---------------- ----- ----------------- --------- --------- ---------  ------
 d= 0,ls=0.0,diis     1  -1404.5204540013 -1.95D+03  1.68D-02  1.75D+00     7.3
 d= 0,ls=0.0,diis     2  -1403.6816482159  8.39D-01  1.42D-02  7.62D+00     8.2
 d= 0,ls=0.0,diis     3  -1404.7020880649 -1.02D+00  3.32D-03  2.65D-01     9.1
 d= 0,ls=0.0,diis     4  -1404.7199562472 -1.79D-02  1.43D-03  1.64D-01    10.0
 d= 0,ls=0.0,diis     5  -1404.7374665979 -1.75D-02  3.56D-04  4.78D-03    11.0
  Resetting Diis
 d= 0,ls=0.0,diis     6  -1404.7379748526 -5.08D-04  1.35D-04  8.12D-04    12.0
 d= 0,ls=0.0,diis     7  -1404.7380750805 -1.00D-04  9.24D-05  5.76D-05    12.9
 d= 0,ls=0.0,diis     8  -1404.7380552033  1.99D-05  6.45D-05  2.06D-04    13.9
 d= 0,ls=0.0,diis     9  -1404.7380823044 -2.71D-05  1.30D-05  4.73D-06    14.9
 d= 0,ls=0.0,diis    10  -1404.7380829021 -5.98D-07  3.94D-06  6.43D-07    15.8


         Total DFT energy =    -1404.738082902138
      One electron energy =    -3027.556608363604
           Coulomb energy =     1179.983890582110
    Exchange-Corr. energy =     -107.317689122035
 Nuclear repulsion energy =      550.152324001391

 Numeric. integr. density =       84.000018059612

     Total iterative time =     14.0s



                       DFT Final Molecular Orbital Analysis
                       ------------------------------------

 Vector    1  Occ=2.000000D+00  E=-8.892105D+01
              MO Center= -1.0D+00,  2.6D+00, -5.4D-01, r^2= 3.6D-03
   Bfn.  Coefficient  Atom+Function         Bfn.  Coefficient  Atom+Function  
  ----- ------------  ---------------      ----- ------------  ---------------
   101      1.000025  11 S  s         

 Vector    2  Occ=2.000000D+00  E=-8.887391D+01
              MO Center=  2.2D+00,  7.3D-01, -9.6D-02, r^2= 3.6D-03
   Bfn.  Coefficient  Atom+Function         Bfn.  Coefficient  Atom+Function  
  ----- ------------  ---------------      ----- ------------  ---------------
   139      1.000017  13 S  s         

 Vector    3  Occ=2.000000D+00  E=-8.887085D+01
              MO Center= -5.8D-01, -3.2D+00, -3.2D-01, r^2= 3.6D-03
   Bfn.  Coefficient  Atom+Function         Bfn.  Coefficient  Atom+Function  
  ----- ------------  ---------------      ----- ------------  ---------------
   120      1.000011  12 S  s         

 Vector    4  Occ=2.000000D+00  E=-1.441263D+01
              MO Center= -4.5D-02, -7.6D-01,  5.4D-01, r^2= 2.0D-02
   Bfn.  Coefficient  Atom+Function         Bfn.  Coefficient  Atom+Function  
  ----- ------------  ---------------      ----- ------------  ---------------
    86      1.003506  10 N  s         

 Vector    5  Occ=2.000000D+00  E=-1.030593D+01
              MO Center=  7.0D-01,  4.5D-01,  2.9D-01, r^2= 2.8D-02
   Bfn.  Coefficient  Atom+Function         Bfn.  Coefficient  Atom+Function  
  ----- ------------  ---------------      ----- ------------  ---------------
    46      1.003703   4 C  s         

 Vector    6  Occ=2.000000D+00  E=-1.030034D+01
              MO Center=  4.3D-01, -2.0D+00, -1.0D-01, r^2= 2.8D-02
   Bfn.  Coefficient  Atom+Function         Bfn.  Coefficient  Atom+Function  
  ----- ------------  ---------------      ----- ------------  ---------------
    31      1.003634   3 C  s         

 Vector    7  Occ=2.000000D+00  E=-1.029416D+01
              MO Center= -1.4D+00,  1.4D-01,  6.3D-01, r^2= 2.8D-02
   Bfn.  Coefficient  Atom+Function         Bfn.  Coefficient  Atom+Function  
  ----- ------------  ---------------      ----- ------------  ---------------
    16      1.003590   2 C  s         

 Vector    8  Occ=2.000000D+00  E=-1.028337D+01
              MO Center= -4.7D-01,  1.4D+00,  6.9D-01, r^2= 2.8D-02
   Bfn.  Coefficient  Atom+Function         Bfn.  Coefficient  Atom+Function  
  ----- ------------  ---------------      ----- ------------  ---------------
     1      1.003635   1 C  s         

 Vector    9  Occ=2.000000D+00  E=-7.974579D+00
              MO Center= -1.0D+00,  2.6D+00, -5.4D-01, r^2= 7.7D-02
   Bfn.  Coefficient  Atom+Function         Bfn.  Coefficient  Atom+Function  
  ----- ------------  ---------------      ----- ------------  ---------------
   102      1.011940  11 S  s               103      0.028272  11 S  s         

 Vector   10  Occ=2.000000D+00  E=-7.930958D+00
              MO Center=  2.2D+00,  7.3D-01, -9.5D-02, r^2= 7.7D-02
   Bfn.  Coefficient  Atom+Function         Bfn.  Coefficient  Atom+Function  
  ----- ------------  ---------------      ----- ------------  ---------------
   140      1.012237  13 S  s               141      0.028717  13 S  s         

 Vector   11  Occ=2.000000D+00  E=-7.928389D+00
              MO Center= -5.8D-01, -3.2D+00, -3.2D-01, r^2= 7.7D-02
   Bfn.  Coefficient  Atom+Function         Bfn.  Coefficient  Atom+Function  
  ----- ------------  ---------------      ----- ------------  ---------------
   121      1.012395  12 S  s               122      0.028885  12 S  s         

 Vector   12  Occ=2.000000D+00  E=-5.939596D+00
              MO Center= -1.0D+00,  2.6D+00, -5.4D-01, r^2= 6.9D-02
   Bfn.  Coefficient  Atom+Function         Bfn.  Coefficient  Atom+Function  
  ----- ------------  ---------------      ----- ------------  ---------------
   105      0.808845  11 S  px              106     -0.535010  11 S  py        
   107      0.248860  11 S  pz        

 Vector   13  Occ=2.000000D+00  E=-5.936211D+00
              MO Center= -1.0D+00,  2.6D+00, -5.4D-01, r^2= 6.9D-02
   Bfn.  Coefficient  Atom+Function         Bfn.  Coefficient  Atom+Function  
  ----- ------------  ---------------      ----- ------------  ---------------
   107      0.805177  11 S  pz              105     -0.480021  11 S  px        
   106     -0.351202  11 S  py        

 Vector   14  Occ=2.000000D+00  E=-5.928312D+00
              MO Center= -1.0D+00,  2.6D+00, -5.4D-01, r^2= 6.8D-02
   Bfn.  Coefficient  Atom+Function         Bfn.  Coefficient  Atom+Function  
  ----- ------------  ---------------      ----- ------------  ---------------
   106      0.769717  11 S  py              107      0.540071  11 S  pz        
   105      0.342875  11 S  px        

 Vector   15  Occ=2.000000D+00  E=-5.894604D+00
              MO Center=  2.2D+00,  7.4D-01, -9.6D-02, r^2= 6.9D-02
   Bfn.  Coefficient  Atom+Function         Bfn.  Coefficient  Atom+Function  
  ----- ------------  ---------------      ----- ------------  ---------------
   143      0.973081  13 S  px              144      0.193737  13 S  py        
   145     -0.135411  13 S  pz        

 Vector   16  Occ=2.000000D+00  E=-5.892049D+00
              MO Center=  2.2D+00,  7.3D-01, -9.6D-02, r^2= 6.9D-02
   Bfn.  Coefficient  Atom+Function         Bfn.  Coefficient  Atom+Function  
  ----- ------------  ---------------      ----- ------------  ---------------
   145      0.991423  13 S  pz              143      0.137837  13 S  px        

 Vector   17  Occ=2.000000D+00  E=-5.891600D+00
              MO Center= -5.9D-01, -3.2D+00, -3.2D-01, r^2= 6.9D-02
   Bfn.  Coefficient  Atom+Function         Bfn.  Coefficient  Atom+Function  
  ----- ------------  ---------------      ----- ------------  ---------------
   124      0.689050  12 S  px              125      0.656604  12 S  py        
   126      0.310961  12 S  pz        

 Vector   18  Occ=2.000000D+00  E=-5.890568D+00
              MO Center= -5.8D-01, -3.2D+00, -3.2D-01, r^2= 6.9D-02
   Bfn.  Coefficient  Atom+Function         Bfn.  Coefficient  Atom+Function  
  ----- ------------  ---------------      ----- ------------  ---------------
   126      0.804171  12 S  pz              125     -0.568634  12 S  py        
   124      0.178715  12 S  px        

 Vector   19  Occ=2.000000D+00  E=-5.886004D+00
              MO Center=  2.2D+00,  7.3D-01, -9.6D-02, r^2= 6.8D-02
   Bfn.  Coefficient  Atom+Function         Bfn.  Coefficient  Atom+Function  
  ----- ------------  ---------------      ----- ------------  ---------------
   144      0.982017  13 S  py              143     -0.191829  13 S  px        
   145      0.026460  13 S  pz        

 Vector   20  Occ=2.000000D+00  E=-5.882672D+00
              MO Center= -5.8D-01, -3.2D+00, -3.2D-01, r^2= 6.8D-02
   Bfn.  Coefficient  Atom+Function         Bfn.  Coefficient  Atom+Function  
  ----- ------------  ---------------      ----- ------------  ---------------
   124      0.703827  12 S  px              126     -0.508450  12 S  pz        
   125     -0.497894  12 S  py        

 Vector   21  Occ=2.000000D+00  E=-9.828265D-01
              MO Center= -2.4D-03, -3.9D-01,  4.0D-01, r^2= 1.4D+00
   Bfn.  Coefficient  Atom+Function         Bfn.  Coefficient  Atom+Function  
  ----- ------------  ---------------      ----- ------------  ---------------
    87      0.329911  10 N  s                88      0.327614  10 N  s         
    47      0.193176   4 C  s                32      0.133004   3 C  s         
    17      0.125306   2 C  s                 2      0.102129   1 C  s         
     3      0.096566   1 C  s                48      0.070794   4 C  s         
    19      0.067126   2 C  px               50     -0.067073   4 C  py        

 Vector   22  Occ=2.000000D+00  E=-8.444875D-01
              MO Center= -2.4D-01, -1.9D-01,  1.9D-01, r^2= 4.4D+00
   Bfn.  Coefficient  Atom+Function         Bfn.  Coefficient  Atom+Function  
  ----- ------------  ---------------      ----- ------------  ---------------
    32     -0.235923   3 C  s                 2      0.215462   1 C  s         
     3      0.180431   1 C  s               103      0.174284  11 S  s         
   122     -0.169697  12 S  s                33     -0.138261   3 C  s         
    90      0.126005  10 N  py               87     -0.118545  10 N  s         
    88     -0.117628  10 N  s                17      0.116500   2 C  s         

 Vector   23  Occ=2.000000D+00  E=-7.875960D-01
              MO Center=  8.9D-02,  4.4D-01,  1.5D-02, r^2= 5.5D+00
   Bfn.  Coefficient  Atom+Function         Bfn.  Coefficient  Atom+Function  
  ----- ------------  ---------------      ----- ------------  ---------------
   103      0.253262  11 S  s               141     -0.238197  13 S  s         
    47     -0.189861   4 C  s               104      0.189221  11 S  s         
   142     -0.180197  13 S  s               122      0.177332  12 S  s         
    48     -0.151594   4 C  s               123      0.130192  12 S  s         
     3      0.127791   1 C  s                32      0.125421   3 C  s         

 Vector   24  Occ=2.000000D+00  E=-7.723149D-01
              MO Center=  3.6D-01, -2.2D-02,  5.2D-02, r^2= 5.1D+00
   Bfn.  Coefficient  Atom+Function         Bfn.  Coefficient  Atom+Function  
  ----- ------------  ---------------      ----- ------------  ---------------
   141      0.271938  13 S  s               142      0.229935  13 S  s         
   122      0.195756  12 S  s               103      0.180725  11 S  s         
    88     -0.154608  10 N  s                49      0.146996   4 C  px        
    17     -0.140545   2 C  s               104      0.139302  11 S  s         
   123      0.138127  12 S  s                32      0.136593   3 C  s         

 Vector   25  Occ=2.000000D+00  E=-7.148439D-01
              MO Center= -7.0D-01,  1.1D-01,  5.3D-02, r^2= 6.1D+00
   Bfn.  Coefficient  Atom+Function         Bfn.  Coefficient  Atom+Function  
  ----- ------------  ---------------      ----- ------------  ---------------
   103      0.298090  11 S  s               104      0.266339  11 S  s         
   122     -0.237954  12 S  s                17     -0.201593   2 C  s         
   123     -0.202099  12 S  s                35      0.169682   3 C  py        
    88      0.161798  10 N  s                87      0.152522  10 N  s         
    18     -0.147358   2 C  s                 5      0.113315   1 C  py        

 Vector   26  Occ=2.000000D+00  E=-6.579666D-01
              MO Center= -4.7D-01,  4.2D-01,  4.1D-01, r^2= 3.9D+00
   Bfn.  Coefficient  Atom+Function         Bfn.  Coefficient  Atom+Function  
  ----- ------------  ---------------      ----- ------------  ---------------
    17      0.239480   2 C  s               141      0.228742  13 S  s         
   142      0.211145  13 S  s                18      0.206165   2 C  s         
    49      0.185023   4 C  px               71      0.180467   7 H  s         
     2     -0.173961   1 C  s                76      0.145369   8 H  s         
     3     -0.143486   1 C  s                 4     -0.119919   1 C  px        

 Vector   27  Occ=2.000000D+00  E=-5.910585D-01
              MO Center= -2.2D-01, -4.7D-01,  2.0D-01, r^2= 5.8D+00
   Bfn.  Coefficient  Atom+Function         Bfn.  Coefficient  Atom+Function  
  ----- ------------  ---------------      ----- ------------  ---------------
   123      0.276084  12 S  s               122      0.250608  12 S  s         
    90      0.248449  10 N  py                3     -0.218344   1 C  s         
    32     -0.193858   3 C  s                 2     -0.188793   1 C  s         
    33     -0.187010   3 C  s               104      0.171391  11 S  s         
   103      0.148790  11 S  s                35     -0.146620   3 C  py        

 Vector   28  Occ=2.000000D+00  E=-5.391391D-01
              MO Center=  3.4D-01, -9.3D-01,  1.0D-01, r^2= 3.8D+00
   Bfn.  Coefficient  Atom+Function         Bfn.  Coefficient  Atom+Function  
  ----- ------------  ---------------      ----- ------------  ---------------
    81      0.260733   9 H  s                34      0.249073   3 C  px        
    90      0.190029  10 N  py               88     -0.167552  10 N  s         
    36     -0.158458   3 C  pz               33      0.129432   3 C  s         
    87     -0.128178  10 N  s                89      0.127165  10 N  px        
    66     -0.124785   6 H  s                32      0.119784   3 C  s         

 Vector   29  Occ=2.000000D+00  E=-5.059184D-01
              MO Center= -7.4D-01,  4.6D-01,  4.6D-01, r^2= 3.8D+00
   Bfn.  Coefficient  Atom+Function         Bfn.  Coefficient  Atom+Function  
  ----- ------------  ---------------      ----- ------------  ---------------
    21      0.278395   2 C  pz                6      0.228415   1 C  pz        
    76      0.178901   8 H  s                71     -0.157894   7 H  s         
    91      0.158629  10 N  pz               34      0.126084   3 C  px        
    61      0.126025   5 H  s                66      0.124408   6 H  s         
    51      0.123211   4 C  pz              108     -0.122499  11 S  px        

 Vector   30  Occ=2.000000D+00  E=-4.718529D-01
              MO Center=  3.3D-01,  3.7D-01,  3.0D-01, r^2= 5.1D+00
   Bfn.  Coefficient  Atom+Function         Bfn.  Coefficient  Atom+Function  
  ----- ------------  ---------------      ----- ------------  ---------------
   142      0.352404  13 S  s                19      0.279168   2 C  px        
    48     -0.237231   4 C  s               141      0.236907  13 S  s         
   146      0.196347  13 S  px               47     -0.184099   4 C  s         
     4     -0.172021   1 C  px               76     -0.159613   8 H  s         
    89     -0.147451  10 N  px               71     -0.140776   7 H  s         

 Vector   31  Occ=2.000000D+00  E=-4.620652D-01
              MO Center= -3.7D-01, -1.2D-01,  2.2D-01, r^2= 5.2D+00
   Bfn.  Coefficient  Atom+Function         Bfn.  Coefficient  Atom+Function  
  ----- ------------  ---------------      ----- ------------  ---------------
    89     -0.263035  10 N  px                4      0.243389   1 C  px        
    50      0.243054   4 C  py              123     -0.240758  12 S  s         
    20     -0.214976   2 C  py              122     -0.153583  12 S  s         
   104      0.150937  11 S  s                92     -0.133481  10 N  px        
     7      0.118438   1 C  px               33      0.111901   3 C  s         

 Vector   32  Occ=2.000000D+00  E=-4.357554D-01
              MO Center= -1.1D+00,  1.4D+00,  1.6D-01, r^2= 4.5D+00
   Bfn.  Coefficient  Atom+Function         Bfn.  Coefficient  Atom+Function  
  ----- ------------  ---------------      ----- ------------  ---------------
   108      0.302919  11 S  px               61     -0.270502   5 H  s         
    21      0.206473   2 C  pz                6     -0.177921   1 C  pz        
   111      0.176340  11 S  px               76      0.168161   8 H  s         
   109     -0.134858  11 S  py               71     -0.133838   7 H  s         
     5      0.129956   1 C  py               62     -0.120967   5 H  s         

 Vector   33  Occ=2.000000D+00  E=-4.244873D-01
              MO Center= -3.1D-01,  4.4D-01,  4.6D-01, r^2= 4.8D+00
   Bfn.  Coefficient  Atom+Function         Bfn.  Coefficient  Atom+Function  
  ----- ------------  ---------------      ----- ------------  ---------------
     5      0.230382   1 C  py               66      0.217459   6 H  s         
    21     -0.208025   2 C  pz               20     -0.195165   2 C  py        
   142      0.188270  13 S  s                71      0.185853   7 H  s         
     6      0.150711   1 C  pz              146      0.145757  13 S  px        
    90      0.142197  10 N  py                8      0.123440   1 C  py        

 Vector   34  Occ=2.000000D+00  E=-3.938176D-01
              MO Center= -4.4D-02, -6.9D-01,  2.8D-01, r^2= 3.5D+00
   Bfn.  Coefficient  Atom+Function         Bfn.  Coefficient  Atom+Function  
  ----- ------------  ---------------      ----- ------------  ---------------
    91      0.316496  10 N  pz               51      0.225541   4 C  pz        
    36      0.204745   3 C  pz               94      0.203136  10 N  pz        
    21     -0.173391   2 C  pz               35     -0.154268   3 C  py        
    71      0.154602   7 H  s                54      0.137719   4 C  pz        
    89      0.130215  10 N  px               39      0.126940   3 C  pz        

 Vector   35  Occ=2.000000D+00  E=-3.837817D-01
              MO Center= -1.6D-01, -1.0D+00, -6.5D-02, r^2= 7.0D+00
   Bfn.  Coefficient  Atom+Function         Bfn.  Coefficient  Atom+Function  
  ----- ------------  ---------------      ----- ------------  ---------------
   123      0.286256  12 S  s                35      0.250081   3 C  py        
   128     -0.236552  12 S  py                5     -0.205146   1 C  py        
   127     -0.202343  12 S  px               50      0.180871   4 C  py        
    34      0.173414   3 C  px               90     -0.159561  10 N  py        
   110     -0.159502  11 S  pz               49     -0.150835   4 C  px        

 Vector   36  Occ=2.000000D+00  E=-3.718138D-01
              MO Center=  9.9D-02, -1.8D-01,  3.2D-02, r^2= 6.6D+00
   Bfn.  Coefficient  Atom+Function         Bfn.  Coefficient  Atom+Function  
  ----- ------------  ---------------      ----- ------------  ---------------
    89     -0.220403  10 N  px               34      0.215092   3 C  px        
    49      0.211274   4 C  px              146     -0.211271  13 S  px        
   142     -0.196942  13 S  s               128     -0.180324  12 S  py        
   104     -0.170444  11 S  s               110      0.171183  11 S  pz        
   123      0.164025  12 S  s                19      0.159309   2 C  px        

 Vector   37  Occ=2.000000D+00  E=-3.527188D-01
              MO Center= -4.8D-01,  1.6D+00, -3.2D-02, r^2= 4.7D+00
   Bfn.  Coefficient  Atom+Function         Bfn.  Coefficient  Atom+Function  
  ----- ------------  ---------------      ----- ------------  ---------------
   104      0.295600  11 S  s               110     -0.271326  11 S  pz        
    49      0.223985   4 C  px                6      0.201108   1 C  pz        
    61     -0.197010   5 H  s               113     -0.197367  11 S  pz        
   146     -0.162784  13 S  px               19      0.161960   2 C  px        
     4     -0.144108   1 C  px               76     -0.140639   8 H  s         

 Vector   38  Occ=2.000000D+00  E=-3.125364D-01
              MO Center=  6.1D-01, -8.3D-01, -4.0D-02, r^2= 5.7D+00
   Bfn.  Coefficient  Atom+Function         Bfn.  Coefficient  Atom+Function  
  ----- ------------  ---------------      ----- ------------  ---------------
   148      0.280676  13 S  pz               51      0.261238   4 C  pz        
   129     -0.248141  12 S  pz               36     -0.221837   3 C  pz        
   151      0.221810  13 S  pz              132     -0.202227  12 S  pz        
    54      0.178857   4 C  pz               39     -0.143876   3 C  pz        
    35      0.123366   3 C  py              128      0.107571  12 S  py        

 Vector   39  Occ=2.000000D+00  E=-2.687435D-01
              MO Center= -6.9D-01,  2.0D+00, -3.2D-01, r^2= 4.1D+00
   Bfn.  Coefficient  Atom+Function         Bfn.  Coefficient  Atom+Function  
  ----- ------------  ---------------      ----- ------------  ---------------
   109      0.380742  11 S  py              112      0.379861  11 S  py        
   110      0.271286  11 S  pz              113      0.256405  11 S  pz        
   108      0.176491  11 S  px              111      0.166380  11 S  px        
   148      0.146072  13 S  pz              151      0.134879  13 S  pz        
    18      0.130657   2 C  s                66     -0.124748   6 H  s         

 Vector   40  Occ=2.000000D+00  E=-2.571870D-01
              MO Center=  6.6D-01, -5.5D-01, -1.3D-02, r^2= 6.6D+00
   Bfn.  Coefficient  Atom+Function         Bfn.  Coefficient  Atom+Function  
  ----- ------------  ---------------      ----- ------------  ---------------
   129      0.282785  12 S  pz              132      0.263768  12 S  pz        
   147     -0.253883  13 S  py              150     -0.239237  13 S  py        
   148      0.225694  13 S  pz               91     -0.222754  10 N  pz        
   151      0.210718  13 S  pz               94     -0.181139  10 N  pz        
    88     -0.179080  10 N  s               109     -0.126559  11 S  py        

 Vector   41  Occ=2.000000D+00  E=-2.494607D-01
              MO Center=  6.9D-01, -6.7D-01, -9.8D-02, r^2= 7.0D+00
   Bfn.  Coefficient  Atom+Function         Bfn.  Coefficient  Atom+Function  
  ----- ------------  ---------------      ----- ------------  ---------------
   147      0.305558  13 S  py              150      0.295061  13 S  py        
   127      0.236560  12 S  px               91     -0.223850  10 N  pz        
   130      0.219866  12 S  px              128     -0.213223  12 S  py        
   131     -0.208622  12 S  py              148      0.187473  13 S  pz        
    94     -0.184696  10 N  pz              151      0.181996  13 S  pz        

 Vector   42  Occ=2.000000D+00  E=-2.247045D-01
              MO Center=  3.9D-01, -1.6D+00, -1.9D-01, r^2= 6.9D+00
   Bfn.  Coefficient  Atom+Function         Bfn.  Coefficient  Atom+Function  
  ----- ------------  ---------------      ----- ------------  ---------------
   147     -0.316859  13 S  py              150     -0.312661  13 S  py        
   127      0.300314  12 S  px              130      0.301495  12 S  px        
   132     -0.233134  12 S  pz              129     -0.228477  12 S  pz        
   131     -0.211491  12 S  py              128     -0.204853  12 S  py        
    90     -0.149694  10 N  py               81     -0.110531   9 H  s         

 Vector   43  Occ=0.000000D+00  E=-9.319975D-02
              MO Center=  5.0D-01, -1.1D+00, -2.8D-02, r^2= 5.7D+00
   Bfn.  Coefficient  Atom+Function         Bfn.  Coefficient  Atom+Function  
  ----- ------------  ---------------      ----- ------------  ---------------
    51      0.343521   4 C  pz              151     -0.329256  13 S  pz        
   132      0.326105  12 S  pz               54      0.313600   4 C  pz        
    39     -0.297324   3 C  pz               36     -0.294911   3 C  pz        
   129      0.235904  12 S  pz              148     -0.218820  13 S  pz        
   131     -0.191807  12 S  py               37     -0.165086   3 C  px        

 Vector   44  Occ=0.000000D+00  E=-5.048569D-02
              MO Center=  2.3D-01, -4.9D-01,  1.8D-01, r^2= 5.5D+00
   Bfn.  Coefficient  Atom+Function         Bfn.  Coefficient  Atom+Function  
  ----- ------------  ---------------      ----- ------------  ---------------
    51      0.308559   4 C  pz               36      0.305089   3 C  pz        
    54      0.305584   4 C  pz               94     -0.304716  10 N  pz        
    39      0.296563   3 C  pz              151     -0.291834  13 S  pz        
    88     -0.273518  10 N  s                91     -0.267513  10 N  pz        
   132     -0.259841  12 S  pz               62     -0.240273   5 H  s         

 Vector   45  Occ=0.000000D+00  E=-1.320116D-02
              MO Center= -1.4D+00,  2.4D+00, -1.1D-01, r^2= 4.0D+00
   Bfn.  Coefficient  Atom+Function         Bfn.  Coefficient  Atom+Function  
  ----- ------------  ---------------      ----- ------------  ---------------
    62      1.014455   5 H  s               111      0.775504  11 S  px        
     3     -0.687478   1 C  s               104     -0.351814  11 S  s         
   108      0.331940  11 S  px              112     -0.331271  11 S  py        
    61      0.268912   5 H  s                67      0.247454   6 H  s         
    23      0.213421   2 C  py              109     -0.136542  11 S  py        

 Vector   46  Occ=0.000000D+00  E= 8.352343D-03
              MO Center= -5.3D-01,  1.5D-01,  4.0D-01, r^2= 4.9D+00
   Bfn.  Coefficient  Atom+Function         Bfn.  Coefficient  Atom+Function  
  ----- ------------  ---------------      ----- ------------  ---------------
    88      0.685193  10 N  s                22     -0.478251   2 C  px        
    67     -0.446834   6 H  s                 8      0.386985   1 C  py        
    82      0.355167   9 H  s               104     -0.347610  11 S  s         
    23      0.324409   2 C  py               48      0.321940   4 C  s         
    92     -0.322848  10 N  px                3      0.313372   1 C  s         

 Vector   47  Occ=0.000000D+00  E= 2.752392D-02
              MO Center= -9.6D-01,  1.4D+00,  4.4D-01, r^2= 5.9D+00
   Bfn.  Coefficient  Atom+Function         Bfn.  Coefficient  Atom+Function  
  ----- ------------  ---------------      ----- ------------  ---------------
     3      1.270568   1 C  s               104     -0.838332  11 S  s         
    18      0.692935   2 C  s                62      0.630136   5 H  s         
    67     -0.618112   6 H  s               113     -0.567294  11 S  pz        
    48     -0.500465   4 C  s                77     -0.457467   8 H  s         
     8      0.339030   1 C  py               82     -0.301769   9 H  s         

 Vector   48  Occ=0.000000D+00  E= 5.050609D-02
              MO Center= -1.3D+00,  6.0D-01,  1.1D+00, r^2= 6.0D+00
   Bfn.  Coefficient  Atom+Function         Bfn.  Coefficient  Atom+Function  
  ----- ------------  ---------------      ----- ------------  ---------------
    77      1.287152   8 H  s                18     -0.981938   2 C  s         
   104     -0.653519  11 S  s                67      0.605342   6 H  s         
     9     -0.581213   1 C  pz               24     -0.435448   2 C  pz        
   112      0.417197  11 S  py              113     -0.357805  11 S  pz        
    22      0.350035   2 C  px               62      0.317221   5 H  s         

 Vector   49  Occ=0.000000D+00  E= 5.570845D-02
              MO Center= -9.9D-01,  7.9D-01,  6.7D-01, r^2= 5.5D+00
   Bfn.  Coefficient  Atom+Function         Bfn.  Coefficient  Atom+Function  
  ----- ------------  ---------------      ----- ------------  ---------------
    18      1.345349   2 C  s                72     -1.002117   7 H  s         
    67      0.986163   6 H  s                 3     -0.686331   1 C  s         
     9     -0.627672   1 C  pz               48     -0.519519   4 C  s         
    77     -0.379028   8 H  s                 7      0.326904   1 C  px        
   111     -0.263421  11 S  px                6     -0.255844   1 C  pz        

 Vector   50  Occ=0.000000D+00  E= 8.280221D-02
              MO Center=  9.4D-01, -1.9D+00, -4.5D-01, r^2= 5.2D+00
   Bfn.  Coefficient  Atom+Function         Bfn.  Coefficient  Atom+Function  
  ----- ------------  ---------------      ----- ------------  ---------------
    33      1.640513   3 C  s                82     -1.521329   9 H  s         
   123     -0.475366  12 S  s               130     -0.457586  12 S  px        
    37      0.424009   3 C  px              131     -0.353808  12 S  py        
    77      0.351407   8 H  s                18     -0.336986   2 C  s         
    39     -0.332834   3 C  pz               23      0.271111   2 C  py        

 Vector   51  Occ=0.000000D+00  E= 9.821342D-02
              MO Center=  2.0D-01,  6.3D-01,  1.3D-01, r^2= 6.5D+00
   Bfn.  Coefficient  Atom+Function         Bfn.  Coefficient  Atom+Function  
  ----- ------------  ---------------      ----- ------------  ---------------
    48      1.547020   4 C  s                72     -0.914522   7 H  s         
   142     -0.865265  13 S  s               149      0.827894  13 S  px        
     7     -0.783212   1 C  px               23     -0.635272   2 C  py        
    67      0.438513   6 H  s                52      0.380908   4 C  px        
    22     -0.353511   2 C  px                8     -0.308528   1 C  py        

 Vector   52  Occ=0.000000D+00  E= 1.207118D-01
              MO Center= -1.1D+00,  5.1D-01,  2.6D-01, r^2= 6.9D+00
   Bfn.  Coefficient  Atom+Function         Bfn.  Coefficient  Atom+Function  
  ----- ------------  ---------------      ----- ------------  ---------------
    72      1.630449   7 H  s                24      1.062421   2 C  pz        
    77     -0.921413   8 H  s                67      0.835717   6 H  s         
     9     -0.766563   1 C  pz               48      0.582289   4 C  s         
   104     -0.439958  11 S  s               149      0.437689  13 S  px        
   142     -0.425307  13 S  s                 3     -0.419629   1 C  s         

 Vector   53  Occ=0.000000D+00  E= 1.378243D-01
              MO Center=  3.3D-01,  1.5D-01,  3.3D-01, r^2= 8.2D+00
   Bfn.  Coefficient  Atom+Function         Bfn.  Coefficient  Atom+Function  
  ----- ------------  ---------------      ----- ------------  ---------------
   142      1.146269  13 S  s               149     -1.015445  13 S  px        
    52     -0.893995   4 C  px               77     -0.833297   8 H  s         
    48     -0.738316   4 C  s                22     -0.687596   2 C  px        
     7     -0.674491   1 C  px               23     -0.664230   2 C  py        
    33      0.595753   3 C  s                67      0.594970   6 H  s         

 Vector   54  Occ=0.000000D+00  E= 1.454201D-01
              MO Center= -9.4D-02, -1.6D+00, -7.6D-02, r^2= 7.7D+00
   Bfn.  Coefficient  Atom+Function         Bfn.  Coefficient  Atom+Function  
  ----- ------------  ---------------      ----- ------------  ---------------
   123      1.321100  12 S  s                37      1.020762   3 C  px        
   131      1.008785  12 S  py               82     -0.873515   9 H  s         
    33     -0.848483   3 C  s                 7     -0.791507   1 C  px        
   130      0.660058  12 S  px               53      0.610157   4 C  py        
    38      0.542356   3 C  py               88      0.509725  10 N  s         

 Vector   55  Occ=0.000000D+00  E= 1.629555D-01
              MO Center=  1.8D-01,  1.2D-01,  2.5D-01, r^2= 5.5D+00
   Bfn.  Coefficient  Atom+Function         Bfn.  Coefficient  Atom+Function  
  ----- ------------  ---------------      ----- ------------  ---------------
     3      1.589780   1 C  s                53     -1.110115   4 C  py        
     8     -1.035121   1 C  py               48     -0.680702   4 C  s         
    22     -0.653667   2 C  px               82     -0.655677   9 H  s         
    18     -0.622412   2 C  s                 7      0.613036   1 C  px        
    37      0.591523   3 C  px               52      0.558374   4 C  px        

 Vector   56  Occ=0.000000D+00  E= 1.960976D-01
              MO Center=  2.4D-01, -1.3D+00,  1.6D-02, r^2= 4.9D+00
   Bfn.  Coefficient  Atom+Function         Bfn.  Coefficient  Atom+Function  
  ----- ------------  ---------------      ----- ------------  ---------------
    88      1.509479  10 N  s                38     -1.359483   3 C  py        
   123     -0.770621  12 S  s                92      0.757539  10 N  px        
   130     -0.643402  12 S  px               53      0.579340   4 C  py        
    33     -0.569100   3 C  s                52      0.547452   4 C  px        
    39     -0.518308   3 C  pz              142     -0.496861  13 S  s         

 Vector   57  Occ=0.000000D+00  E= 2.647984D-01
              MO Center= -7.0D-02,  2.6D-01,  2.1D-01, r^2= 6.3D+00
   Bfn.  Coefficient  Atom+Function         Bfn.  Coefficient  Atom+Function  
  ----- ------------  ---------------      ----- ------------  ---------------
     3      2.368749   1 C  s                52      2.200476   4 C  px        
     8     -1.840266   1 C  py               18     -1.596991   2 C  s         
    48     -1.568039   4 C  s               142     -1.511530  13 S  s         
    93      1.388690  10 N  py               22     -1.205724   2 C  px        
    88      1.140376  10 N  s               149      1.005914  13 S  px        

 Vector   58  Occ=0.000000D+00  E= 3.214302D-01
              MO Center= -1.2D+00,  1.7D+00, -4.2D-02, r^2= 6.0D+00
   Bfn.  Coefficient  Atom+Function         Bfn.  Coefficient  Atom+Function  
  ----- ------------  ---------------      ----- ------------  ---------------
    62      0.857775   5 H  s                61     -0.646468   5 H  s         
    33     -0.509421   3 C  s                53     -0.481743   4 C  py        
   104     -0.469038  11 S  s                23      0.445122   2 C  py        
    38     -0.346850   3 C  py              116      0.329244  11 S  dxz       
   141      0.301882  13 S  s                52     -0.273640   4 C  px        

 Vector   59  Occ=0.000000D+00  E= 3.487089D-01
              MO Center=  4.7D-01, -6.9D-01,  1.5D-02, r^2= 6.6D+00
   Bfn.  Coefficient  Atom+Function         Bfn.  Coefficient  Atom+Function  
  ----- ------------  ---------------      ----- ------------  ---------------
    52      0.767648   4 C  px              141     -0.653561  13 S  s         
    38      0.626132   3 C  py              142      0.591873  13 S  s         
    37      0.516788   3 C  px              122      0.502402  12 S  s         
     3      0.485612   1 C  s               140     -0.456683  13 S  s         
    18     -0.428423   2 C  s                22     -0.404640   2 C  px        

 Vector   60  Occ=0.000000D+00  E= 3.648073D-01
              MO Center= -7.0D-01,  3.1D-01,  4.2D-01, r^2= 6.8D+00
   Bfn.  Coefficient  Atom+Function         Bfn.  Coefficient  Atom+Function  
  ----- ------------  ---------------      ----- ------------  ---------------
     3      0.747903   1 C  s                52      0.662786   4 C  px        
    67      0.603216   6 H  s                22     -0.563847   2 C  px        
    88      0.553211  10 N  s                76     -0.503228   8 H  s         
   104     -0.500076  11 S  s               123      0.470470  12 S  s         
    18     -0.464534   2 C  s                48     -0.465588   4 C  s         

 Vector   61  Occ=0.000000D+00  E= 3.699790D-01
              MO Center= -7.3D-01,  5.8D-02,  3.0D-01, r^2= 6.9D+00
   Bfn.  Coefficient  Atom+Function         Bfn.  Coefficient  Atom+Function  
  ----- ------------  ---------------      ----- ------------  ---------------
    33      0.670784   3 C  s                71     -0.554543   7 H  s         
    22     -0.544016   2 C  px              122     -0.487449  12 S  s         
    24     -0.482136   2 C  pz              123      0.462189  12 S  s         
     3      0.438821   1 C  s                37     -0.393906   3 C  px        
    93      0.366229  10 N  py              121     -0.338999  12 S  s         

 Vector   62  Occ=0.000000D+00  E= 3.859406D-01
              MO Center= -7.9D-01,  1.0D+00,  3.0D-01, r^2= 6.5D+00
   Bfn.  Coefficient  Atom+Function         Bfn.  Coefficient  Atom+Function  
  ----- ------------  ---------------      ----- ------------  ---------------
    22     -0.778264   2 C  px                8      0.707939   1 C  py        
     7     -0.583463   1 C  px               62     -0.572745   5 H  s         
    88      0.547837  10 N  s                18     -0.484189   2 C  s         
    52     -0.480465   4 C  px               33     -0.371038   3 C  s         
    19      0.355205   2 C  px               37      0.339649   3 C  px        

 Vector   63  Occ=0.000000D+00  E= 4.113161D-01
              MO Center= -2.8D-01,  1.6D-01,  2.7D-02, r^2= 7.8D+00
   Bfn.  Coefficient  Atom+Function         Bfn.  Coefficient  Atom+Function  
  ----- ------------  ---------------      ----- ------------  ---------------
    48      0.665944   4 C  s                23      0.571005   2 C  py        
    82      0.475617   9 H  s                 7     -0.460931   1 C  px        
    81     -0.457679   9 H  s                 3     -0.404134   1 C  s         
   111      0.396828  11 S  px                4      0.362764   1 C  px        
    20     -0.364569   2 C  py                9      0.355869   1 C  pz        

 Vector   64  Occ=0.000000D+00  E= 4.234211D-01
              MO Center=  2.2D-02,  1.1D+00,  1.3D-01, r^2= 7.2D+00
   Bfn.  Coefficient  Atom+Function         Bfn.  Coefficient  Atom+Function  
  ----- ------------  ---------------      ----- ------------  ---------------
    52      0.923966   4 C  px               22      0.906658   2 C  px        
   149      0.758695  13 S  px               18      0.643630   2 C  s         
   142     -0.536074  13 S  s                 8      0.518435   1 C  py        
   104      0.457431  11 S  s               103     -0.406464  11 S  s         
    54     -0.394220   4 C  pz              150      0.388427  13 S  py        

 Vector   65  Occ=0.000000D+00  E= 4.312741D-01
              MO Center=  6.2D-02,  2.0D-01,  2.1D-01, r^2= 6.3D+00
   Bfn.  Coefficient  Atom+Function         Bfn.  Coefficient  Atom+Function  
  ----- ------------  ---------------      ----- ------------  ---------------
    88      1.194697  10 N  s                38     -0.921447   3 C  py        
     7      0.883194   1 C  px                3      0.779676   1 C  s         
     8     -0.768306   1 C  py               52      0.709266   4 C  px        
    48     -0.648718   4 C  s                33     -0.563311   3 C  s         
    22     -0.547830   2 C  px               39     -0.495603   3 C  pz        

 Vector   66  Occ=0.000000D+00  E= 4.420853D-01
              MO Center=  2.0D-01, -3.4D-01,  1.9D-01, r^2= 7.2D+00
   Bfn.  Coefficient  Atom+Function         Bfn.  Coefficient  Atom+Function  
  ----- ------------  ---------------      ----- ------------  ---------------
    39      0.538398   3 C  pz               22      0.488605   2 C  px        
     8      0.482078   1 C  py               36     -0.436358   3 C  pz        
    54      0.437460   4 C  pz               18      0.386064   2 C  s         
     9     -0.382138   1 C  pz               76      0.381400   8 H  s         
    72      0.329902   7 H  s                23      0.325431   2 C  py        

 Vector   67  Occ=0.000000D+00  E= 4.491744D-01
              MO Center= -5.0D-01,  1.6D+00, -5.4D-01, r^2= 7.9D+00
   Bfn.  Coefficient  Atom+Function         Bfn.  Coefficient  Atom+Function  
  ----- ------------  ---------------      ----- ------------  ---------------
     3      0.852701   1 C  s               113     -0.844695  11 S  pz        
   112      0.817241  11 S  py                7     -0.731452   1 C  px        
   110      0.564022  11 S  pz                9     -0.557403   1 C  pz        
   109     -0.465711  11 S  py               54      0.422565   4 C  pz        
    18     -0.414006   2 C  s               123      0.376992  12 S  s         

 Vector   68  Occ=0.000000D+00  E= 4.596992D-01
              MO Center= -3.7D-01,  9.1D-01, -2.7D-01, r^2= 8.4D+00
   Bfn.  Coefficient  Atom+Function         Bfn.  Coefficient  Atom+Function  
  ----- ------------  ---------------      ----- ------------  ---------------
   113      0.932375  11 S  pz              104      0.692689  11 S  s         
     3     -0.635574   1 C  s               110     -0.601608  11 S  pz        
     8     -0.384690   1 C  py               48     -0.373413   4 C  s         
   111      0.372484  11 S  px               22      0.311567   2 C  px        
    39      0.297514   3 C  pz              108     -0.298288  11 S  px        

 Vector   69  Occ=0.000000D+00  E= 4.734886D-01
              MO Center=  4.4D-01, -3.7D-01, -1.7D-01, r^2= 9.5D+00
   Bfn.  Coefficient  Atom+Function         Bfn.  Coefficient  Atom+Function  
  ----- ------------  ---------------      ----- ------------  ---------------
    53      0.892372   4 C  py              149      0.728815  13 S  px        
    48      0.664227   4 C  s                33     -0.630747   3 C  s         
     7     -0.569500   1 C  px               52      0.513738   4 C  px        
   132      0.513039  12 S  pz              129     -0.472183  12 S  pz        
   131      0.457629  12 S  py               88      0.450532  10 N  s         

 Vector   70  Occ=0.000000D+00  E= 4.757360D-01
              MO Center=  5.2D-01, -3.4D-01, -1.9D-01, r^2= 9.5D+00
   Bfn.  Coefficient  Atom+Function         Bfn.  Coefficient  Atom+Function  
  ----- ------------  ---------------      ----- ------------  ---------------
    52      1.377057   4 C  px              149      0.894878  13 S  px        
     3      0.526545   1 C  s               142     -0.453716  13 S  s         
   104     -0.448980  11 S  s                 8     -0.436679   1 C  py        
   146     -0.412459  13 S  px              130     -0.370365  12 S  px        
   127      0.334733  12 S  px               81      0.331956   9 H  s         

 Vector   71  Occ=0.000000D+00  E= 4.834974D-01
              MO Center= -5.5D-01, -4.1D-01, -4.0D-01, r^2= 1.1D+01
   Bfn.  Coefficient  Atom+Function         Bfn.  Coefficient  Atom+Function  
  ----- ------------  ---------------      ----- ------------  ---------------
   131      0.792702  12 S  py              112      0.735032  11 S  py        
   128     -0.593760  12 S  py              109     -0.544279  11 S  py        
    33     -0.446310   3 C  s               110     -0.369841  11 S  pz        
     9     -0.351460   1 C  pz               48     -0.325171   4 C  s         
    38      0.323174   3 C  py              113      0.303501  11 S  pz        

 Vector   72  Occ=0.000000D+00  E= 5.025642D-01
              MO Center=  9.5D-01,  7.0D-01, -1.3D-01, r^2= 6.8D+00
   Bfn.  Coefficient  Atom+Function         Bfn.  Coefficient  Atom+Function  
  ----- ------------  ---------------      ----- ------------  ---------------
   151      0.838443  13 S  pz              148     -0.670503  13 S  pz        
    48      0.508414   4 C  s               154      0.496346  13 S  dxz       
    52     -0.469275   4 C  px              104      0.451289  11 S  s         
   112     -0.413470  11 S  py                7     -0.398659   1 C  px        
   142      0.368140  13 S  s                 9      0.360995   1 C  pz        

 Vector   73  Occ=0.000000D+00  E= 5.067956D-01
              MO Center= -6.2D-01, -1.7D-01, -3.4D-02, r^2= 8.4D+00
   Bfn.  Coefficient  Atom+Function         Bfn.  Coefficient  Atom+Function  
  ----- ------------  ---------------      ----- ------------  ---------------
    38      0.720283   3 C  py               18      0.687978   2 C  s         
   130      0.652618  12 S  px                3     -0.602862   1 C  s         
     9      0.534773   1 C  pz               77      0.534577   8 H  s         
    53      0.526410   4 C  py              115      0.463732  11 S  dxy       
    24     -0.454822   2 C  pz               23      0.439440   2 C  py        

 Vector   74  Occ=0.000000D+00  E= 5.133732D-01
              MO Center=  2.0D-01, -1.3D+00, -1.2D-01, r^2= 8.6D+00
   Bfn.  Coefficient  Atom+Function         Bfn.  Coefficient  Atom+Function  
  ----- ------------  ---------------      ----- ------------  ---------------
   132      0.772989  12 S  pz              129     -0.628093  12 S  pz        
    54     -0.595380   4 C  pz              104      0.523313  11 S  s         
   151      0.487411  13 S  pz              131     -0.476386  12 S  py        
    39     -0.442577   3 C  pz               62     -0.387802   5 H  s         
    24     -0.378352   2 C  pz               33      0.373042   3 C  s         

 Vector   75  Occ=0.000000D+00  E= 5.227443D-01
              MO Center= -7.9D-01, -9.6D-01, -8.8D-02, r^2= 8.4D+00
   Bfn.  Coefficient  Atom+Function         Bfn.  Coefficient  Atom+Function  
  ----- ------------  ---------------      ----- ------------  ---------------
   104      1.035205  11 S  s                22      0.776695   2 C  px        
   130     -0.746317  12 S  px              127      0.608484  12 S  px        
   142     -0.597819  13 S  s                 7      0.561666   1 C  px        
    37      0.493149   3 C  px               77      0.491131   8 H  s         
   103     -0.487467  11 S  s               131      0.489249  12 S  py        

 Vector   76  Occ=0.000000D+00  E= 5.279350D-01
              MO Center=  7.9D-01, -3.8D-02, -4.1D-02, r^2= 7.6D+00
   Bfn.  Coefficient  Atom+Function         Bfn.  Coefficient  Atom+Function  
  ----- ------------  ---------------      ----- ------------  ---------------
    53      1.143474   4 C  py              150     -0.917013  13 S  py        
     3     -0.656007   1 C  s               147      0.656764  13 S  py        
    88      0.573559  10 N  s                 8      0.553591   1 C  py        
    23      0.491894   2 C  py              132     -0.477554  12 S  pz        
    50     -0.457778   4 C  py               93      0.421482  10 N  py        

 Vector   77  Occ=0.000000D+00  E= 5.450691D-01
              MO Center=  3.0D-01,  3.6D-01,  4.4D-01, r^2= 6.4D+00
   Bfn.  Coefficient  Atom+Function         Bfn.  Coefficient  Atom+Function  
  ----- ------------  ---------------      ----- ------------  ---------------
     3      0.900076   1 C  s                54     -0.869565   4 C  pz        
    48     -0.759383   4 C  s                67     -0.741723   6 H  s         
   104     -0.700015  11 S  s                 9      0.645234   1 C  pz        
    52      0.604227   4 C  px                7      0.593307   1 C  px        
    39      0.561476   3 C  pz               62      0.484863   5 H  s         

 Vector   78  Occ=0.000000D+00  E= 5.533054D-01
              MO Center= -5.4D-01,  9.8D-01,  1.8D-01, r^2= 7.5D+00
   Bfn.  Coefficient  Atom+Function         Bfn.  Coefficient  Atom+Function  
  ----- ------------  ---------------      ----- ------------  ---------------
    62      0.929121   5 H  s               111      0.734936  11 S  px        
    53      0.694572   4 C  py               18      0.625698   2 C  s         
     9      0.568859   1 C  pz              104     -0.531567  11 S  s         
     3     -0.518332   1 C  s                67     -0.492120   6 H  s         
   112     -0.481573  11 S  py               77     -0.466987   8 H  s         

 Vector   79  Occ=0.000000D+00  E= 5.646783D-01
              MO Center= -8.6D-01,  3.8D-01,  5.7D-01, r^2= 7.0D+00
   Bfn.  Coefficient  Atom+Function         Bfn.  Coefficient  Atom+Function  
  ----- ------------  ---------------      ----- ------------  ---------------
    77      1.217123   8 H  s                24     -1.053736   2 C  pz        
    67     -0.909222   6 H  s                72     -0.716406   7 H  s         
   104      0.686522  11 S  s                 9      0.643127   1 C  pz        
     7      0.555455   1 C  px                8      0.519447   1 C  py        
    21      0.479345   2 C  pz               76     -0.361116   8 H  s         

 Vector   80  Occ=0.000000D+00  E= 5.804998D-01
              MO Center=  4.1D-01,  2.1D-01, -2.2D-02, r^2= 7.1D+00
   Bfn.  Coefficient  Atom+Function         Bfn.  Coefficient  Atom+Function  
  ----- ------------  ---------------      ----- ------------  ---------------
   104      0.989312  11 S  s                72     -0.700545   7 H  s         
    52     -0.663718   4 C  px              123     -0.622447  12 S  s         
    48      0.602038   4 C  s                24     -0.586314   2 C  pz        
    53     -0.569074   4 C  py              142      0.517116  13 S  s         
     9      0.510759   1 C  pz               88     -0.504635  10 N  s         

 Vector   81  Occ=0.000000D+00  E= 5.863294D-01
              MO Center= -7.0D-02, -8.5D-01, -3.4D-02, r^2= 8.5D+00
   Bfn.  Coefficient  Atom+Function         Bfn.  Coefficient  Atom+Function  
  ----- ------------  ---------------      ----- ------------  ---------------
   156      0.560637  13 S  dyz              33      0.502515   3 C  s         
   138      0.466802  12 S  dzz              67      0.456570   6 H  s         
   116     -0.402599  11 S  dxz               3     -0.378017   1 C  s         
     9     -0.370945   1 C  pz              111     -0.348685  11 S  px        
    93      0.340682  10 N  py               23      0.333087   2 C  py        

 Vector   82  Occ=0.000000D+00  E= 5.910651D-01
              MO Center=  4.0D-01, -6.4D-01, -5.0D-02, r^2= 7.6D+00
   Bfn.  Coefficient  Atom+Function         Bfn.  Coefficient  Atom+Function  
  ----- ------------  ---------------      ----- ------------  ---------------
    52      0.877821   4 C  px              156      0.782195  13 S  dyz       
     8     -0.719797   1 C  py              142     -0.706012  13 S  s         
   104      0.666024  11 S  s                48     -0.621363   4 C  s         
    33     -0.578459   3 C  s               137      0.499055  12 S  dyz       
     3      0.495593   1 C  s                88      0.485113  10 N  s         

 Vector   83  Occ=0.000000D+00  E= 6.046521D-01
              MO Center= -2.1D-01, -1.9D+00, -6.7D-02, r^2= 6.5D+00
   Bfn.  Coefficient  Atom+Function         Bfn.  Coefficient  Atom+Function  
  ----- ------------  ---------------      ----- ------------  ---------------
   135      1.016263  12 S  dxz             137     -0.668130  12 S  dyz       
    67     -0.596330   6 H  s                 9      0.512331   1 C  pz        
    77      0.509362   8 H  s                22      0.407543   2 C  px        
    33      0.389669   3 C  s               156      0.368590  13 S  dyz       
   134     -0.361288  12 S  dxy               8      0.350131   1 C  py        

 Vector   84  Occ=0.000000D+00  E= 6.191447D-01
              MO Center= -1.3D-02,  3.8D-01,  4.9D-01, r^2= 7.8D+00
   Bfn.  Coefficient  Atom+Function         Bfn.  Coefficient  Atom+Function  
  ----- ------------  ---------------      ----- ------------  ---------------
    52      1.459530   4 C  px               48     -1.146359   4 C  s         
    67      1.132809   6 H  s               142     -1.001965  13 S  s         
     8     -0.980569   1 C  py               24     -0.870520   2 C  pz        
    72     -0.772759   7 H  s                 9     -0.754164   1 C  pz        
   156     -0.686758  13 S  dyz              77      0.590025   8 H  s         

 Vector   85  Occ=0.000000D+00  E= 6.239386D-01
              MO Center=  7.5D-02, -2.0D-01, -1.2D-01, r^2= 9.0D+00
   Bfn.  Coefficient  Atom+Function         Bfn.  Coefficient  Atom+Function  
  ----- ------------  ---------------      ----- ------------  ---------------
   123      1.825609  12 S  s                37      1.229088   3 C  px        
    82     -1.232773   9 H  s               104      0.993511  11 S  s         
[...]
 
 P.Frequency     1062.47     1124.58     1138.36     1164.71     1219.80     1283.93
 
           1     0.03274    -0.03750     0.01604     0.12472    -0.03128    -0.04960
           2     0.00353     0.01859     0.01581    -0.02540    -0.08848     0.06812
           3     0.00121     0.01695     0.01532    -0.00887     0.06559     0.01324
           4    -0.08441    -0.09991     0.00561    -0.03814    -0.00180    -0.00498
           5    -0.01200     0.05995    -0.01777    -0.03791     0.00165    -0.13259
           6    -0.01020     0.02904     0.06922     0.01519    -0.05877    -0.02317
           7    -0.10929     0.00453    -0.00149     0.00108    -0.00702     0.00074
           8    -0.10460     0.05488     0.00055     0.00051     0.02191     0.03431
           9     0.00604     0.00934    -0.00127     0.00200     0.00795     0.00521
          10    -0.00297     0.08763     0.00191     0.04057    -0.00298     0.07286
          11     0.06923    -0.13046    -0.00142     0.03502    -0.00016    -0.04634
          12     0.02470    -0.04896     0.00260    -0.04958    -0.00809    -0.02047
          13    -0.01197     0.01072     0.00652    -0.04234    -0.01559     0.01414
          14     0.04046    -0.05117    -0.00184     0.13078     0.02285    -0.05285
          15    -0.03958     0.04470     0.00980    -0.12447    -0.02743     0.04719
          16     0.18249    -0.05881    -0.03255    -0.73307     0.25691     0.08053
          17    -0.02516     0.05852    -0.07276     0.28063     0.73279    -0.06704
          18     0.00290     0.00227     0.05662    -0.06384    -0.27866     0.06226
          19    -0.13498    -0.01037     0.39008    -0.05050    -0.04383    -0.16308
          20    -0.03526    -0.21525    -0.47816     0.12265    -0.12760     0.47862
          21     0.03544    -0.03489    -0.24841     0.01131    -0.00865     0.07981
          22    -0.03190     0.01527    -0.43915    -0.08541     0.04896    -0.15013
          23     0.06003    -0.23714     0.44908     0.03293     0.25003     0.45951
          24     0.04664    -0.05063     0.08581     0.02908     0.06643     0.17116
          25    -0.17240    -0.02340     0.00865    -0.00387    -0.00132    -0.00437
          26    -0.53057    -0.15637    -0.02489    -0.03447     0.08123    -0.00356
          27    -0.05687    -0.02718     0.05578    -0.00639     0.00566     0.00047
          28     0.06083     0.11190    -0.01172    -0.00120     0.01952     0.03727
          29    -0.00783     0.07961     0.01228    -0.00260    -0.01480     0.02425
          30    -0.01068    -0.00750    -0.06567     0.00622    -0.00335    -0.00447
          31    -0.00179     0.00097    -0.00090    -0.00416     0.00074     0.00179
          32    -0.00142     0.00097    -0.00031    -0.00195     0.00292    -0.00045
          33     0.00033    -0.00118    -0.00212     0.01294     0.00697    -0.00278
          34     0.04550    -0.00612     0.00034     0.00032    -0.00194    -0.00441
          35     0.04122    -0.01556     0.00009     0.00031    -0.00203    -0.00637
          36    -0.00277    -0.00129    -0.00044    -0.00030     0.00007    -0.00008
          37    -0.00350    -0.02478    -0.00049    -0.01491     0.00109    -0.01380
          38    -0.00445    -0.00243    -0.00004    -0.00358    -0.00022    -0.00077
          39    -0.00068     0.00544     0.00036     0.00499    -0.00042     0.00289

                   31          32          33          34          35          36
 
 P.Frequency     1345.73     1383.11     1439.45     1476.54     2645.01     3074.77
 
           1     0.03788    -0.02354    -0.01255     0.01305     0.00034    -0.00039
           2    -0.01694    -0.03038     0.02460    -0.00742     0.00039     0.00207
           3    -0.00754     0.00670     0.00267    -0.00292    -0.00001     0.00853
           4     0.01953     0.05451     0.01059     0.07693    -0.00002     0.05680
           5    -0.01923    -0.00929     0.02339     0.01222    -0.00009     0.02652
           6    -0.00817    -0.01549     0.00202    -0.01334    -0.00006    -0.01652
           7     0.03598     0.07587     0.02161    -0.00748    -0.00003     0.00153
           8     0.07670    -0.03194     0.16985    -0.02097     0.00004     0.00082
           9     0.00534    -0.02090     0.02263    -0.00165     0.00001    -0.00016
          10    -0.18372     0.10590     0.03931    -0.05265     0.00015    -0.00136
          11    -0.08338     0.01539     0.04646    -0.03190     0.00032    -0.00082
          12     0.02466    -0.01937    -0.00063     0.00537     0.00019     0.00013
          13    -0.00953     0.00424     0.00202    -0.00343    -0.79529     0.00038
          14     0.03548    -0.01571    -0.01080     0.01107     0.28041     0.00017
          15    -0.02885     0.01418     0.00637    -0.01104     0.50079    -0.00061
          16    -0.07712     0.07135     0.02097    -0.02369    -0.00145    -0.00560
          17     0.02049     0.05313    -0.01748     0.01499    -0.00242    -0.03854
          18    -0.01691    -0.03471     0.01977    -0.01133    -0.00476    -0.09953
          19     0.08159    -0.00408    -0.10834    -0.42858     0.00014    -0.39712
          20     0.12907    -0.07077    -0.06971    -0.16160    -0.00072    -0.02309
          21    -0.06579     0.03854     0.11373     0.44575     0.00065    -0.45449
          22     0.10959    -0.02657    -0.13826    -0.56675    -0.00063    -0.26120
          23     0.10883    -0.02685    -0.04484    -0.03025    -0.00043    -0.27427
          24     0.07690    -0.05396    -0.08764    -0.28855     0.00012     0.64905
          25    -0.03819     0.01730    -0.05093     0.00294    -0.00000    -0.01571
          26    -0.45590    -0.47221    -0.37064     0.07039     0.00023     0.00072
          27    -0.06748    -0.07926    -0.04948     0.00969     0.00004     0.00309
          28     0.01121    -0.14426    -0.01152     0.03097    -0.00005     0.00049
          29     0.06123     0.09640    -0.16081     0.04507    -0.00012    -0.00025
          30     0.00836     0.04560    -0.02334     0.00191     0.00001    -0.00010
          31    -0.00164     0.00080     0.00068    -0.00046     0.02507    -0.00003
          32     0.00034     0.00153    -0.00084    -0.00017    -0.00888    -0.00000
          33     0.00162    -0.00125     0.00001     0.00081    -0.01574    -0.00001
          34    -0.00577    -0.00188    -0.00630     0.00035    -0.00001    -0.00011
          35    -0.01437    -0.00351    -0.01059    -0.00045    -0.00001    -0.00011
          36    -0.00112    -0.00017    -0.00038    -0.00012    -0.00000     0.00001
          37     0.03432    -0.01755    -0.00281     0.00748    -0.00008     0.00009
          38     0.00841    -0.00236    -0.00115     0.00192    -0.00004     0.00005
          39    -0.00631     0.00349     0.00049    -0.00138     0.00003    -0.00002

                   37          38          39
 
 P.Frequency     3097.57     3123.06     3144.19
 
           1    -0.00572    -0.00013    -0.00055
           2    -0.03094    -0.00000    -0.00281
           3    -0.07426    -0.00000    -0.00674
           4     0.00942     0.00135    -0.02338
           5     0.00277     0.00005     0.01523
           6     0.00694    -0.00086    -0.08777
           7     0.00020    -0.07928     0.00042
           8    -0.00005     0.00801    -0.00007
           9    -0.00012     0.01775    -0.00000
          10    -0.00097    -0.00078    -0.00006
          11    -0.00041    -0.00042     0.00012
          12    -0.00001     0.00009    -0.00050
          13    -0.00403    -0.00004     0.00003
          14     0.00326     0.00007    -0.00015
          15     0.00230    -0.00010    -0.00027
          16     0.06630    -0.00005     0.00803
          17     0.34462     0.00025     0.03541
          18     0.87775     0.00035     0.08271
          19    -0.09083    -0.00484     0.49444
          20    -0.00470    -0.00015     0.04255
          21    -0.10171    -0.00479     0.53480
          22    -0.00832    -0.00596    -0.21864
          23    -0.01286    -0.00551    -0.22440
          24     0.02351     0.01301     0.50195
          25    -0.00163     0.92695    -0.00486
          26    -0.00028    -0.09911     0.00084
          27     0.00070    -0.20850    -0.00148
          28     0.00004    -0.00032     0.00014
          29     0.00087    -0.00017    -0.00010
          30    -0.00013     0.00005     0.00069
          31     0.00011    -0.00000     0.00002
          32    -0.00003    -0.00000    -0.00004
          33     0.00005     0.00001     0.00010
          34    -0.00000     0.00075    -0.00000
          35    -0.00000     0.00055    -0.00000
          36     0.00000    -0.00007     0.00003
          37    -0.00001     0.00010    -0.00002
          38    -0.00001    -0.00005    -0.00000
          39     0.00002    -0.00003     0.00000



 ----------------------------------------------------------------------------
 Normal Eigenvalue ||    Projected Derivative Dipole Moments (debye/angs)
  Mode   [cm**-1]  ||      [d/dqX]             [d/dqY]           [d/dqZ]
 ------ ---------- || ------------------ ------------------ -----------------
    1       -0.000 ||       0.036               0.049             0.005
    2       -0.000 ||       0.004               0.005             0.001
    3       -0.000 ||      -0.056              -0.047            -0.033
    4       -0.000 ||       0.023               0.047            -0.010
    5        0.000 ||      -0.083              -0.007            -0.103
    6        0.000 ||       0.045              -0.057             0.107
    7       63.218 ||      -0.050               0.014            -0.115
    8      116.132 ||      -0.074               0.068             0.159
    9      138.252 ||      -0.189               0.357             0.092
   10      148.079 ||       0.120               0.122             0.219
   11      189.895 ||       0.313               0.474             0.275
   12      259.722 ||       0.051              -0.028            -0.018
   13      301.786 ||      -0.086              -0.017            -0.375
   14      342.637 ||       0.021               0.272            -0.040
   15      472.728 ||       0.073               0.151             0.050
   16      541.985 ||      -0.185               0.094            -0.026
   17      617.293 ||      -0.387              -0.432             0.057
   18      683.061 ||      -0.154              -0.384             0.074
   19      768.067 ||      -0.412              -0.352             0.015
   20      887.965 ||      -0.073               0.261             0.005
   21      912.923 ||       0.093              -0.084             0.457
   22      969.758 ||      -0.095               0.267            -0.079
   23     1001.539 ||       0.106               0.332             0.082
   24     1016.820 ||      -0.154              -0.561            -0.167
   25     1062.473 ||      -0.332              -0.947            -0.071
   26     1124.580 ||      -0.209              -0.719            -0.049
   27     1138.362 ||      -0.033              -0.068             0.173
   28     1164.706 ||       0.430               0.214             0.261
   29     1219.805 ||       0.312              -0.042             0.316
   30     1283.930 ||       0.493               0.133            -0.114
   31     1345.730 ||      -1.702              -1.351             0.160
   32     1383.105 ||       1.185              -1.013            -0.314
   33     1439.450 ||       1.920               3.705             0.047
   34     1476.536 ||      -1.005              -1.404            -0.027
   35     2645.005 ||       0.271              -0.169            -0.125
   36     3074.771 ||       0.412              -0.028            -0.209
   37     3097.565 ||      -0.107               0.088            -0.202
   38     3123.057 ||      -0.075               0.025             0.006
   39     3144.186 ||      -0.036               0.084            -0.306
 ----------------------------------------------------------------------------



  
  
 ----------------------------------------------------------------------------
 Normal Eigenvalue ||           Projected Infra Red Intensities
  Mode   [cm**-1]  || [atomic units] [(debye/angs)**2] [(KM/mol)] [arbitrary]
 ------ ---------- || -------------- ----------------- ---------- -----------
    1       -0.000 ||    0.000161           0.004         0.157       0.043
    2       -0.000 ||    0.000002           0.000         0.002       0.001
    3       -0.000 ||    0.000281           0.006         0.274       0.076
    4       -0.000 ||    0.000121           0.003         0.118       0.033
    5        0.000 ||    0.000761           0.018         0.741       0.206
    6        0.000 ||    0.000728           0.017         0.709       0.197
    7       63.218 ||    0.000695           0.016         0.677       0.188
    8      116.132 ||    0.001532           0.035         1.494       0.414
    9      138.252 ||    0.007435           0.172         7.248       2.009
   10      148.079 ||    0.003341           0.077         3.257       0.903
   11      189.895 ||    0.017285           0.399        16.850       4.671
   12      259.722 ||    0.000163           0.004         0.159       0.044
   13      301.786 ||    0.006424           0.148         6.262       1.736
   14      342.637 ||    0.003284           0.076         3.202       0.887
   15      472.728 ||    0.001321           0.030         1.288       0.357
   16      541.985 ||    0.001904           0.044         1.856       0.514
   17      617.293 ||    0.014716           0.340        14.346       3.976
   18      683.061 ||    0.007664           0.177         7.471       2.071
   19      768.067 ||    0.012716           0.293        12.396       3.436
   20      887.965 ||    0.003184           0.073         3.104       0.860
   21      912.923 ||    0.009736           0.225         9.491       2.631
   22      969.758 ||    0.003756           0.087         3.662       1.015
   23     1001.539 ||    0.005568           0.128         5.428       1.504
   24     1016.820 ||    0.015894           0.367        15.494       4.295
   25     1062.473 ||    0.043903           1.013        42.799      11.863
   26     1124.580 ||    0.024397           0.563        23.784       6.592
   27     1138.362 ||    0.001546           0.036         1.507       0.418
   28     1164.706 ||    0.012941           0.299        12.615       3.497
   29     1219.805 ||    0.008630           0.199         8.413       2.332
   30     1283.930 ||    0.011878           0.274        11.579       3.210
   31     1345.730 ||    0.205741           4.747       200.567      55.594
   32     1383.105 ||    0.109609           2.529       106.852      29.618
   33     1439.450 ||    0.754984          17.418       735.996     204.007
   34     1476.536 ||    0.129288           2.983       126.036      34.935
   35     2645.005 ||    0.005106           0.118         4.977       1.380
   36     3074.771 ||    0.009302           0.215         9.068       2.514
   37     3097.565 ||    0.002608           0.060         2.542       0.705
   38     3123.057 ||    0.000274           0.006         0.267       0.074
   39     3144.186 ||    0.004425           0.102         4.314       1.196
 ----------------------------------------------------------------------------



 vib:animation  F

 Task  times  cpu:      412.9s     wall:      412.9s


                                NWChem Input Module
                                -------------------


 Summary of allocated global arrays
-----------------------------------
  No active global arrays


MA_summarize_allocated_blocks: starting scan ...
MA_summarize_allocated_blocks: scan completed: 0 heap blocks, 0 stack blocks
MA usage statistics:

	allocation statistics:
					      heap	     stack
					      ----	     -----
	current number of blocks	         0	         0
	maximum number of blocks	        25	        54
	current total bytes		         0	         0
	maximum total bytes		 638677128	  88608472
	maximum total K-bytes		    638678	     88609
	maximum total M-bytes		       639	        89


                                     CITATION
                                     --------
                Please cite the following reference when publishing
                           results obtained with NWChem:

          E. Apra, E. J. Bylaska, W. A. de Jong, N. Govind, K. Kowalski,
       T. P. Straatsma, M. Valiev, H. J. J. van Dam, Y. Alexeev, J. Anchell,
       V. Anisimov, F. W. Aquino, R. Atta-Fynn, J. Autschbach, N. P. Bauman,
     J. C. Becca, D. E. Bernholdt, K. Bhaskaran-Nair, S. Bogatko, P. Borowski,
         J. Boschen, J. Brabec, A. Bruner, E. Cauet, Y. Chen, G. N. Chuev,
      C. J. Cramer, J. Daily, M. J. O. Deegan, T. H. Dunning Jr., M. Dupuis,
   K. G. Dyall, G. I. Fann, S. A. Fischer, A. Fonari, H. Fruchtl, L. Gagliardi,
      J. Garza, N. Gawande, S. Ghosh, K. Glaesemann, A. W. Gotz, J. Hammond,
       V. Helms, E. D. Hermes, K. Hirao, S. Hirata, M. Jacquelin, L. Jensen,
   B. G. Johnson, H. Jonsson, R. A. Kendall, M. Klemm, R. Kobayashi, V. Konkov,
      S. Krishnamoorthy, M. Krishnan, Z. Lin, R. D. Lins, R. J. Littlefield,
      A. J. Logsdail, K. Lopata, W. Ma, A. V. Marenich, J. Martin del Campo,
   D. Mejia-Rodriguez, J. E. Moore, J. M. Mullin, T. Nakajima, D. R. Nascimento,
    J. A. Nichols, P. J. Nichols, J. Nieplocha, A. Otero-de-la-Roza, B. Palmer,
    A. Panyala, T. Pirojsirikul, B. Peng, R. Peverati, J. Pittner, L. Pollack,
   R. M. Richard, P. Sadayappan, G. C. Schatz, W. A. Shelton, D. W. Silverstein,
   D. M. A. Smith, T. A. Soares, D. Song, M. Swart, H. L. Taylor, G. S. Thomas,
            V. Tipparaju, D. G. Truhlar, K. Tsemekhman, T. Van Voorhis,
      A. Vazquez-Mayagoitia, P. Verma, O. Villa, A. Vishnu, K. D. Vogiatzis,
        D. Wang, J. H. Weare, M. J. Williamson, T. L. Windus, K. Wolinski,
        A. T. Wong, Q. Wu, C. Yang, Q. Yu, M. Zacharias, Z. Zhang, Y. Zhao,
                                and R. J. Harrison
                        "NWChem: Past, present, and future
                         J. Chem. Phys. 152, 184102 (2020)
                               doi:10.1063/5.0004997

                                      AUTHORS
                                      -------
  E. Apra, E. J. Bylaska, N. Govind, K. Kowalski, M. Valiev, D. Mejia-Rodriguez,
       A. Kunitsa, N. P. Bauman, A. Panyala, W. A. de Jong, T. P. Straatsma,
   H. J. J. van Dam, D. Wang, T. L. Windus, J. Hammond, J. Autschbach, A. Woods,
    K. Bhaskaran-Nair, J. Brabec, K. Lopata, S. A. Fischer, S. Krishnamoorthy,
     M. Jacquelin, W. Ma, M. Klemm, O. Villa, Y. Chen, V. Anisimov, F. Aquino,
     S. Hirata, M. T. Hackler, E. Hermes, L. Jensen, J. E. Moore, J. C. Becca,
      V. Konjkov, T. Risthaus, M. Malagoli, A. Marenich, A. Otero-de-la-Roza,
        J. Mullin, P. Nichols, R. Peverati, J. Pittner, Y. Zhao, P.-D. Fan,
        A. Fonari, M. J. Williamson, R. J. Harrison, J. R. Rehr, M. Dupuis,
     D. Silverstein, D. M. A. Smith, J. Nieplocha, V. Tipparaju, M. Krishnan,
     B. E. Van Kuiken, A. Vazquez-Mayagoitia, M. Swart, Q. Wu, T. Van Voorhis,
     A. A. Auer, M. Nooijen, L. D. Crosby, E. Brown, G. Cisneros, G. I. Fann,
   H. Fruchtl, J. Garza, K. Hirao, R. A. Kendall, J. A. Nichols, K. Tsemekhman,
    K. Wolinski, J. Anchell, D. E. Bernholdt, P. Borowski, T. Clark, D. Clerc,
   H. Dachsel, M. J. O. Deegan, K. Dyall, D. Elwood, E. Glendening, M. Gutowski,
   A. C. Hess, J. Jaffe, B. G. Johnson, J. Ju, R. Kobayashi, R. Kutteh, Z. Lin,
   R. Littlefield, X. Long, B. Meng, T. Nakajima, S. Niu, L. Pollack, M. Rosing,
   K. Glaesemann, G. Sandrone, M. Stave, H. Taylor, G. Thomas, J. H. van Lenthe,
                               A. T. Wong, Z. Zhang.

 Total times  cpu:      935.5s     wall:      935.5s
