 argument  1 = xyz80.in
                                         
                                         


             Northwest Computational Chemistry Package (NWChem) 7.2.3
             --------------------------------------------------------


                    Environmental Molecular Sciences Laboratory
                       Pacific Northwest National Laboratory
                                Richland, WA 99352

                              Copyright (c) 1994-2022
                       Pacific Northwest National Laboratory
                            Battelle Memorial Institute

             NWChem is an open-source computational chemistry package
                        distributed under the terms of the
                      Educational Community License (ECL) 2.0
             A copy of the license is included with this distribution
                              in the LICENSE.TXT file

                                  ACKNOWLEDGMENT
                                  --------------

            This software and its documentation were developed at the
            EMSL at Pacific Northwest National Laboratory, a multiprogram
            national laboratory, operated for the U.S. Department of Energy
            by Battelle under Contract Number DE-AC05-76RL01830. Support
            for this work was provided by the Department of Energy Office
            of Biological and Environmental Research, Office of Basic
            Energy Sciences, and the Office of Advanced Scientific Computing.


           Job information
           ---------------

    hostname        = gpu003
    program         = /home/rrichard/nwchem/bin/LINUX64/nwchem
    date            = Mon Jul 14 09:30:14 2025

    compiled        = Mon_Jul_07_13:04:19_2025
    source          = /home/rrichard/nwchem
    nwchem branch   = 7.2.3
    nwchem revision = v7.2.0-beta1-1473-g5687662257
    ga revision     = 5.9.2
    use scalapack   = T
    input           = xyz80.in
    prefix          = xyz80.
    data base       = ./xyz80.db
    status          = startup
    nproc           =        2
    time left       =     -1s



           Memory information
           ------------------

    heap     =    431126725 doubles =     3289.2 Mbytes
    stack    =    431126721 doubles =     3289.2 Mbytes
    global   =    246358129 doubles =     1879.6 Mbytes (distinct from heap & stack)
    total    =   1108611575 doubles =     8458.0 Mbytes
    verify   = yes
    hardfail = no 


           Directory information
           ---------------------

  0 permanent = .
  0 scratch   = .




                                NWChem Input Module
                                -------------------



 Scaling coordinates for geometry "geometry" by  1.889725989
 (inverse scale =  0.529177249)

 C1  symmetry detected

          ------
          auto-z
          ------
  no constraints, skipping    0.0000000000000000     
  no constraints, skipping    0.0000000000000000     


                             Geometry "geometry" -> ""
                             -------------------------

 Output coordinates in angstroms (scale by  1.889725989 to convert to a.u.)

  No.       Tag          Charge          X              Y              Z
 ---- ---------------- ---------- -------------- -------------- --------------
    1 C                    6.0000    -0.54309029     1.06975763     1.03953863
    2 C                    6.0000     0.06601418    -0.15700312     0.37090077
    3 C                    6.0000     2.36821243     0.27030334    -0.02490132
    4 C                    6.0000     2.02925558     1.46569720    -0.81476321
    5 H                    1.0000    -2.22469758     1.07394353    -0.37441626
    6 H                    1.0000     0.11844026     1.85470843     1.48879075
    7 H                    1.0000    -1.47889687     0.59770619     1.72805876
    8 H                    1.0000     3.37733363    -0.27979056     0.02825245
    9 H                    1.0000     2.79621515     1.79968252    -1.53455194
   10 H                    1.0000     0.88727075     1.94223993    -0.89720933
   11 H                    1.0000     0.55898572    -2.58146780     0.43773923
   12 N                    7.0000    -0.76126068    -1.01858726    -0.14465721
   13 O                    8.0000     1.37120504    -0.34489065     0.65024784
   14 S                   16.0000    -1.45074299     2.03424920    -0.26492107
   15 S                   16.0000    -0.62412064    -2.68489399    -0.26574738

      Atomic Mass 
      ----------- 

      C                 12.000000
      H                  1.007825
      N                 14.003070
      O                 15.994910
      S                 31.972070


 Effective nuclear repulsion energy (a.u.)     508.8356404663

            Nuclear Dipole moment (a.u.) 
            ----------------------------
        X                 Y               Z
 ---------------- ---------------- ----------------
    -0.0000000000     0.0000000000     0.0000000000



                                Z-matrix (autoz)
                                -------- 

 Units are Angstrom for bonds and degrees for angles

      Type          Name      I     J     K     L     M      Value
      ----------- --------  ----- ----- ----- ----- ----- ----------
    1 Stretch                  1     2                       1.52415
    2 Stretch                  1     6                       1.12053
    3 Stretch                  1     7                       1.25404
    4 Stretch                  1    14                       1.85895
    5 Stretch                  2    12                       1.30097
    6 Stretch                  2    13                       1.34791
    7 Stretch                  3     4                       1.47232
    8 Stretch                  3     8                       1.15055
    9 Stretch                  3    13                       1.35215
   10 Stretch                  4     9                       1.10357
   11 Stretch                  4    10                       1.24017
   12 Stretch                  5    14                       1.23822
   13 Stretch                 11    15                       1.38034
   14 Stretch                 12    15                       1.67632
   15 Bend                     1     2    12               116.92158
   16 Bend                     1     2    13               114.09478
   17 Bend                     1    14     5                87.98601
   18 Bend                     2     1     6               120.25066
   19 Bend                     2     1     7               103.65681
   20 Bend                     2     1    14               107.75145
   21 Bend                     2    12    15               129.41353
   22 Bend                     2    13     3               123.16695
   23 Bend                     3     4     9               115.82513
   24 Bend                     3     4    10               124.03077
   25 Bend                     4     3     8               127.94404
   26 Bend                     4     3    13               117.87309
   27 Bend                     6     1     7               118.95471
   28 Bend                     6     1    14               101.89623
   29 Bend                     7     1    14               102.48701
   30 Bend                     8     3    13               113.96111
   31 Bend                     9     4    10               118.70540
   32 Bend                    11    15    12                87.64019
   33 Bend                    12     2    13               127.26875
   34 Torsion                  1     2    12    15        -146.88799
   35 Torsion                  1     2    13     3         -84.30515
   36 Torsion                  2     1    14     5          64.98224
   37 Torsion                  2    12    15    11           3.50971
   38 Torsion                  2    13     3     4          18.17568
   39 Torsion                  2    13     3     8        -156.84581
   40 Torsion                  3    13     2    12         111.21218
   41 Torsion                  5    14     1     6        -167.57132
   42 Torsion                  5    14     1     7         -43.97186
   43 Torsion                  6     1     2    12        -179.11977
   44 Torsion                  6     1     2    13          14.69468
   45 Torsion                  7     1     2    12          44.95431
   46 Torsion                  7     1     2    13        -121.23123
   47 Torsion                  8     3     4     9           8.20424
   48 Torsion                  8     3     4    10         174.29601
   49 Torsion                  9     4     3    13        -166.02432
   50 Torsion                 10     4     3    13           0.06746
   51 Torsion                 12     2     1    14         -63.19032
   52 Torsion                 13     2     1    14         130.62413
   53 Torsion                 13     2    12    15          17.21529


            XYZ format geometry
            -------------------
    15
 geometry
 C                    -0.54309029     1.06975763     1.03953863
 C                     0.06601418    -0.15700312     0.37090077
 C                     2.36821243     0.27030334    -0.02490132
 C                     2.02925558     1.46569720    -0.81476321
 H                    -2.22469758     1.07394353    -0.37441626
 H                     0.11844026     1.85470843     1.48879075
 H                    -1.47889687     0.59770619     1.72805876
 H                     3.37733363    -0.27979056     0.02825245
 H                     2.79621515     1.79968252    -1.53455194
 H                     0.88727075     1.94223993    -0.89720933
 H                     0.55898572    -2.58146780     0.43773923
 N                    -0.76126068    -1.01858726    -0.14465721
 O                     1.37120504    -0.34489065     0.65024784
 S                    -1.45074299     2.03424920    -0.26492107
 S                    -0.62412064    -2.68489399    -0.26574738

 ==============================================================================
                                internuclear distances
 ------------------------------------------------------------------------------
       center one      |      center two      | atomic units |  angstroms
 ------------------------------------------------------------------------------
    2 C                |   1 C                |     2.88022  |     1.52415
    4 C                |   3 C                |     2.78229  |     1.47232
    6 H                |   1 C                |     2.11750  |     1.12053
    8 H                |   3 C                |     2.17422  |     1.15055
    9 H                |   4 C                |     2.08545  |     1.10357
   12 N                |   2 C                |     2.45847  |     1.30097
   13 O                |   2 C                |     2.54718  |     1.34791
   13 O                |   3 C                |     2.55520  |     1.35215
   14 S                |   1 C                |     3.51290  |     1.85895
   14 S                |   5 H                |     2.33989  |     1.23822
   15 S                |  11 H                |     2.60846  |     1.38034
   15 S                |  12 N                |     3.16779  |     1.67632
 ------------------------------------------------------------------------------
                         number of included internuclear distances:         12
 ==============================================================================



 ==============================================================================
                                 internuclear angles
 ------------------------------------------------------------------------------
        center 1       |       center 2       |       center 3       |  degrees
 ------------------------------------------------------------------------------
    2 C                |   1 C                |   6 H                |   120.25
    2 C                |   1 C                |  14 S                |   107.75
    6 H                |   1 C                |  14 S                |   101.90
    1 C                |   2 C                |  12 N                |   116.92
    1 C                |   2 C                |  13 O                |   114.09
   12 N                |   2 C                |  13 O                |   127.27
    4 C                |   3 C                |   8 H                |   127.94
    4 C                |   3 C                |  13 O                |   117.87
    8 H                |   3 C                |  13 O                |   113.96
    3 C                |   4 C                |   9 H                |   115.83
    2 C                |  12 N                |  15 S                |   129.41
    2 C                |  13 O                |   3 C                |   123.17
    1 C                |  14 S                |   5 H                |    87.99
   11 H                |  15 S                |  12 N                |    87.64
 ------------------------------------------------------------------------------
                            number of included internuclear angles:         14
 ==============================================================================





 Summary of "ao basis" -> "" (cartesian)
 ------------------------------------------------------------------------------
       Tag                 Description            Shells   Functions and Types
 ---------------- ------------------------------  ------  ---------------------
 *                          cc-pvdz                   on all atoms 




                           NWChem Geometry Optimization
                           ----------------------------


  no constraints, skipping    0.0000000000000000     
 maximum gradient threshold         (gmax) =   0.000450
 rms gradient threshold             (grms) =   0.000300
 maximum cartesian step threshold   (xmax) =   0.001800
 rms cartesian step threshold       (xrms) =   0.001200
 fixed trust radius                (trust) =   0.300000
 maximum step size to saddle      (sadstp) =   0.100000
 energy precision                  (eprec) =   5.0D-06
 maximum number of steps          (nptopt) =   40
 initial hessian option           (inhess) =    0
 line search option               (linopt) =    1
 hessian update option            (modupd) =    1
 saddle point option              (modsad) =    0
 initial eigen-mode to follow     (moddir) =    0
 initial variable to follow       (vardir) =    0
 follow first negative mode     (firstneg) =    T
 apply conjugacy                    (opcg) =    F
 source of zmatrix                         =   autoz   


          -------------------
          Energy Minimization
          -------------------


 Names of Z-matrix variables 
    1              2              3              4              5         
    6              7              8              9             10         
   11             12             13             14             15         
   16             17             18             19             20         
   21             22             23             24             25         
   26             27             28             29             30         
   31             32             33             34             35         
   36             37             38             39             40         
   41             42             43             44             45         
   46             47             48             49             50         
   51             52             53         

 Variables with the same non-blank name are constrained to be equal


 Using diagonal initial Hessian 
 Scaling for Hessian diagonals: bonds = 1.00  angles = 0.25  torsions = 0.10

          --------
          Step   0
          --------


                         Geometry "geometry" -> "geometry"
                         ---------------------------------

 Output coordinates in angstroms (scale by  1.889725989 to convert to a.u.)

  No.       Tag          Charge          X              Y              Z
 ---- ---------------- ---------- -------------- -------------- --------------
    1 C                    6.0000    -0.54309029     1.06975763     1.03953863
    2 C                    6.0000     0.06601418    -0.15700312     0.37090077
    3 C                    6.0000     2.36821243     0.27030334    -0.02490132
    4 C                    6.0000     2.02925558     1.46569720    -0.81476321
    5 H                    1.0000    -2.22469758     1.07394353    -0.37441626
    6 H                    1.0000     0.11844026     1.85470843     1.48879075
    7 H                    1.0000    -1.47889687     0.59770619     1.72805876
    8 H                    1.0000     3.37733363    -0.27979056     0.02825245
    9 H                    1.0000     2.79621515     1.79968252    -1.53455194
   10 H                    1.0000     0.88727075     1.94223993    -0.89720933
   11 H                    1.0000     0.55898572    -2.58146780     0.43773923
   12 N                    7.0000    -0.76126068    -1.01858726    -0.14465721
   13 O                    8.0000     1.37120504    -0.34489065     0.65024784
   14 S                   16.0000    -1.45074299     2.03424920    -0.26492107
   15 S                   16.0000    -0.62412064    -2.68489399    -0.26574738

      Atomic Mass 
      ----------- 

      C                 12.000000
      H                  1.007825
      N                 14.003070
      O                 15.994910
      S                 31.972070


 Effective nuclear repulsion energy (a.u.)     508.8356404663

            Nuclear Dipole moment (a.u.) 
            ----------------------------
        X                 Y               Z
 ---------------- ---------------- ----------------
    -0.0000000000     0.0000000000     0.0000000000


                                 NWChem DFT Module
                                 -----------------


                      Basis "ao basis" -> "ao basis" (cartesian)
                      -----
  C (Carbon)
  ----------
            Exponent  Coefficients 
       -------------- ---------------------------------------------------------
  1 S  6.66500000E+03  0.000692
  1 S  1.00000000E+03  0.005329
  1 S  2.28000000E+02  0.027077
  1 S  6.47100000E+01  0.101718
  1 S  2.10600000E+01  0.274740
  1 S  7.49500000E+00  0.448564
  1 S  2.79700000E+00  0.285074
  1 S  5.21500000E-01  0.015204

  2 S  6.66500000E+03 -0.000146
  2 S  1.00000000E+03 -0.001154
  2 S  2.28000000E+02 -0.005725
  2 S  6.47100000E+01 -0.023312
  2 S  2.10600000E+01 -0.063955
  2 S  7.49500000E+00 -0.149981
  2 S  2.79700000E+00 -0.127262
  2 S  5.21500000E-01  0.544529

  3 S  1.59600000E-01  1.000000

  4 P  9.43900000E+00  0.038109
  4 P  2.00200000E+00  0.209480
  4 P  5.45600000E-01  0.508557

  5 P  1.51700000E-01  1.000000

  6 D  5.50000000E-01  1.000000

  H (Hydrogen)
  ------------
            Exponent  Coefficients 
       -------------- ---------------------------------------------------------
  1 S  1.30100000E+01  0.019685
  1 S  1.96200000E+00  0.137977
  1 S  4.44600000E-01  0.478148

  2 S  1.22000000E-01  1.000000

  3 P  7.27000000E-01  1.000000

  N (Nitrogen)
  ------------
            Exponent  Coefficients 
       -------------- ---------------------------------------------------------
  1 S  9.04600000E+03  0.000700
  1 S  1.35700000E+03  0.005389
  1 S  3.09300000E+02  0.027406
  1 S  8.77300000E+01  0.103207
  1 S  2.85600000E+01  0.278723
  1 S  1.02100000E+01  0.448540
  1 S  3.83800000E+00  0.278238
  1 S  7.46600000E-01  0.015440

  2 S  9.04600000E+03 -0.000153
  2 S  1.35700000E+03 -0.001208
  2 S  3.09300000E+02 -0.005992
  2 S  8.77300000E+01 -0.024544
  2 S  2.85600000E+01 -0.067459
  2 S  1.02100000E+01 -0.158078
  2 S  3.83800000E+00 -0.121831
  2 S  7.46600000E-01  0.549003

  3 S  2.24800000E-01  1.000000

  4 P  1.35500000E+01  0.039919
  4 P  2.91700000E+00  0.217169
  4 P  7.97300000E-01  0.510319

  5 P  2.18500000E-01  1.000000

  6 D  8.17000000E-01  1.000000

  O (Oxygen)
  ----------
            Exponent  Coefficients 
       -------------- ---------------------------------------------------------
  1 S  1.17200000E+04  0.000710
  1 S  1.75900000E+03  0.005470
  1 S  4.00800000E+02  0.027837
  1 S  1.13700000E+02  0.104800
  1 S  3.70300000E+01  0.283062
  1 S  1.32700000E+01  0.448719
  1 S  5.02500000E+00  0.270952
  1 S  1.01300000E+00  0.015458

  2 S  1.17200000E+04 -0.000160
  2 S  1.75900000E+03 -0.001263
  2 S  4.00800000E+02 -0.006267
  2 S  1.13700000E+02 -0.025716
  2 S  3.70300000E+01 -0.070924
  2 S  1.32700000E+01 -0.165411
  2 S  5.02500000E+00 -0.116955
  2 S  1.01300000E+00  0.557368

  3 S  3.02300000E-01  1.000000

  4 P  1.77000000E+01  0.043018
  4 P  3.85400000E+00  0.228913
  4 P  1.04600000E+00  0.508728

  5 P  2.75300000E-01  1.000000

  6 D  1.18500000E+00  1.000000

  S (Sulphur)
  -----------
            Exponent  Coefficients 
       -------------- ---------------------------------------------------------
  1 S  1.10800000E+05  0.000248
  1 S  1.66100000E+04  0.001920
  1 S  3.78100000E+03  0.009962
  1 S  1.07100000E+03  0.040298
  1 S  3.49800000E+02  0.128604
  1 S  1.26300000E+02  0.303480
  1 S  4.92600000E+01  0.421432
  1 S  2.01600000E+01  0.230781
  1 S  5.72000000E+00  0.017897
  1 S  2.18200000E+00 -0.002975
  1 S  4.32700000E-01  0.000850

  2 S  1.10800000E+05 -0.000069
  2 S  1.66100000E+04 -0.000528
  2 S  3.78100000E+03 -0.002797
  2 S  1.07100000E+03 -0.011265
  2 S  3.49800000E+02 -0.038883
  2 S  1.26300000E+02 -0.099503
  2 S  4.92600000E+01 -0.199740
  2 S  2.01600000E+01 -0.123360
  2 S  5.72000000E+00  0.513194
  2 S  2.18200000E+00  0.607120
  2 S  4.32700000E-01  0.039675

  3 S  1.10800000E+05  0.000020
  3 S  1.66100000E+04  0.000153
  3 S  3.78100000E+03  0.000810
  3 S  1.07100000E+03  0.003290
  3 S  3.49800000E+02  0.011297
  3 S  1.26300000E+02  0.029639
  3 S  4.92600000E+01  0.059985
  3 S  2.01600000E+01  0.041325
  3 S  5.72000000E+00 -0.207474
  3 S  2.18200000E+00 -0.392889
  3 S  4.32700000E-01  0.632840

  4 S  1.57000000E-01  1.000000

  5 P  3.99700000E+02  0.004475
  5 P  9.41900000E+01  0.034171
  5 P  2.97500000E+01  0.144250
  5 P  1.07700000E+01  0.353928
  5 P  4.11900000E+00  0.459085
  5 P  1.62500000E+00  0.206383
  5 P  4.72600000E-01  0.010214

  6 P  3.99700000E+02 -0.001163
  6 P  9.41900000E+01 -0.008657
  6 P  2.97500000E+01 -0.039089
  6 P  1.07700000E+01 -0.093463
  6 P  4.11900000E+00 -0.147994
  6 P  1.62500000E+00  0.030190
  6 P  4.72600000E-01  0.561573

  7 P  1.40700000E-01  1.000000

  8 D  4.79000000E-01  1.000000



 Summary of "ao basis" -> "ao basis" (cartesian)
 ------------------------------------------------------------------------------
       Tag                 Description            Shells   Functions and Types
 ---------------- ------------------------------  ------  ---------------------
 C                          cc-pvdz                  6       15   3s2p1d
 H                          cc-pvdz                  3        5   2s1p
 N                          cc-pvdz                  6       15   3s2p1d
 O                          cc-pvdz                  6       15   3s2p1d
 S                          cc-pvdz                  8       19   4s3p1d




 Summary of "ao basis" -> "ao basis" (cartesian)
 ------------------------------------------------------------------------------
       Tag                 Description            Shells   Functions and Types
 ---------------- ------------------------------  ------  ---------------------
 C                          cc-pvdz                  6       15   3s2p1d
 H                          cc-pvdz                  3        5   2s1p
 N                          cc-pvdz                  6       15   3s2p1d
 O                          cc-pvdz                  6       15   3s2p1d
 S                          cc-pvdz                  8       19   4s3p1d


  Caching 1-el integrals 

            General Information
            -------------------
          SCF calculation type: DFT
          Wavefunction type:  closed shell.
          No. of atoms     :    15
          No. of electrons :    78
           Alpha electrons :    39
            Beta electrons :    39
          Charge           :     0
          Spin multiplicity:     1
          Use of symmetry is: off; symmetry adaption is: off
          Maximum number of iterations:  50
          AO basis - number of functions:   163
                     number of shells:    73
          Convergence on energy requested:  1.00D-06
          Convergence on density requested:  1.00D-05
          Convergence on gradient requested:  5.00D-04

              XC Information
              --------------
                         B3LYP Method XC Potential
                     Hartree-Fock (Exact) Exchange  0.200          
                        Slater Exchange Functional  0.800 local    
                    Becke 1988 Exchange Functional  0.720 non-local
              Lee-Yang-Parr Correlation Functional  0.810          
                  VWN I RPA Correlation Functional  0.190 local    

             Grid Information
             ----------------
          Grid used for XC integration:  medium    
          Radial quadrature: Mura-Knowles        
          Angular quadrature: Lebedev. 
          Tag              B.-S. Rad. Rad. Pts. Rad. Cut. Ang. Pts.
          ---              ---------- --------- --------- ---------
          C                   0.70       49          12.0       434
          H                   0.35       45          13.0       434
          N                   0.65       49          12.0       434
          O                   0.60       49          11.0       434
          S                   1.00       88          13.0       590
          Grid pruning is: on 
          Number of quadrature shells:   785
          Spatial weights used:  Erf1

          Convergence Information
          -----------------------
          Convergence aids based upon iterative change in 
          total energy or number of iterations. 
          Levelshifting, if invoked, occurs when the 
          HOMO/LUMO gap drops below (HL_TOL):  1.00D-02
          DIIS, if invoked, will attempt to extrapolate 
          using up to (NFOCK): 10 stored Fock matrices.

                    Damping( 0%)  Levelshifting(0.5)       DIIS
                  --------------- ------------------- ---------------
          dE  on:    start            ASAP                start   
          dE off:    2 iters         50 iters            50 iters 


      Screening Tolerance Information
      -------------------------------
          Density screening/tol_rho:  1.00D-10
          AO Gaussian exp screening on grid/accAOfunc:  14
          CD Gaussian exp screening on grid/accCDfunc:  20
          XC Gaussian exp screening on grid/accXCfunc:  20
          Schwarz screening/accCoul:  1.00D-08


      Superposition of Atomic Density Guess
      -------------------------------------

 Sum of atomic energies:       -1078.17837537

      Non-variational initial energy
      ------------------------------

 Total energy =   -1081.800593
 1-e energy   =   -2495.255431
 2-e energy   =     904.619197
 HOMO         =      -0.220228
 LUMO         =      -0.007776

   Time after variat. SCF:      1.8
   Time prior to 1st pass:      1.8
 Shared filesystem for scratch_dir 

 Integral file          = ./xyz80.aoints.0
 Record size in doubles =    65536    No. of integs per rec  =    43688
 Max. records in memory =     1382    Max. records in file   = 22911337
 No. of bits per label  =        8    No. of bits per value  =       64


 #quartets = 2.862D+06 #integrals = 6.012D+07 #direct =  0.0% #cached =100.0%


File balance: exchanges=     1  moved=    64  time=   0.0

 Shared filesystem for scratch_dir 

 Grid_pts file          = ./xyz80.gridpts.0
 Record size in doubles =  12289        No. of grid_pts per rec  =   3070
 Max. records in memory =     84        Max. recs in file   = 122183858


           Memory utilization after 1st SCF pass: 
           Heap Space remaining (MW):      339.44           339440237
          Stack Space remaining (MW):      431.13           431125476

   convergence    iter        energy       DeltaE   RMS-Dens  Diis-err    time
 ---------------- ----- ----------------- --------- --------- ---------  ------
 d= 0,ls=0.0,diis     1  -1082.7359261309 -1.59D+03  1.05D-02  1.42D+00     7.5
 d= 0,ls=0.0,diis     2  -1082.5381432238  1.98D-01  8.67D-03  2.79D+00     8.5
 d= 0,ls=0.0,diis     3  -1082.8366991098 -2.99D-01  3.27D-03  4.49D-01     9.5
 d= 0,ls=0.0,diis     4  -1082.8834822574 -4.68D-02  1.12D-03  9.53D-02    10.5
 d= 0,ls=0.0,diis     5  -1082.8927622935 -9.28D-03  2.87D-04  3.00D-03    11.6
  Resetting Diis
 d= 0,ls=0.0,diis     6  -1082.8930802057 -3.18D-04  1.06D-04  3.46D-04    12.6
 d= 0,ls=0.0,diis     7  -1082.8931152339 -3.50D-05  1.18D-04  1.08D-04    13.7
 d= 0,ls=0.0,diis     8  -1082.8930635129  5.17D-05  8.38D-05  5.16D-04    14.8
 d= 0,ls=0.0,diis     9  -1082.8931284175 -6.49D-05  7.32D-06  2.65D-06    15.9
 d= 0,ls=0.0,diis    10  -1082.8931287080 -2.90D-07  1.76D-06  1.53D-07    17.0


         Total DFT energy =    -1082.893128707957
      One electron energy =    -2499.588830853598
           Coulomb energy =      998.844884905505
    Exchange-Corr. energy =      -90.984823226204
 Nuclear repulsion energy =      508.835640466339

 Numeric. integr. density =       77.999965117441

     Total iterative time =     15.2s



                       DFT Final Molecular Orbital Analysis
                       ------------------------------------

 Vector    1  Occ=2.000000D+00  E=-8.893283D+01
              MO Center= -6.2D-01, -2.7D+00, -2.7D-01, r^2= 3.6D-03
   Bfn.  Coefficient  Atom+Function         Bfn.  Coefficient  Atom+Function  
  ----- ------------  ---------------      ----- ------------  ---------------
   145      1.000014  15 S  s         

 Vector    2  Occ=2.000000D+00  E=-8.888000D+01
              MO Center= -1.5D+00,  2.0D+00, -2.6D-01, r^2= 3.6D-03
   Bfn.  Coefficient  Atom+Function         Bfn.  Coefficient  Atom+Function  
  ----- ------------  ---------------      ----- ------------  ---------------
   126      1.000041  14 S  s         

 Vector    3  Occ=2.000000D+00  E=-1.921008D+01
              MO Center=  1.4D+00, -3.4D-01,  6.5D-01, r^2= 1.5D-02
   Bfn.  Coefficient  Atom+Function         Bfn.  Coefficient  Atom+Function  
  ----- ------------  ---------------      ----- ------------  ---------------
   111      1.003712  13 O  s         

 Vector    4  Occ=2.000000D+00  E=-1.435740D+01
              MO Center= -7.6D-01, -1.0D+00, -1.4D-01, r^2= 2.0D-02
   Bfn.  Coefficient  Atom+Function         Bfn.  Coefficient  Atom+Function  
  ----- ------------  ---------------      ----- ------------  ---------------
    96      1.003545  12 N  s         

 Vector    5  Occ=2.000000D+00  E=-1.031087D+01
              MO Center=  6.6D-02, -1.6D-01,  3.7D-01, r^2= 2.8D-02
   Bfn.  Coefficient  Atom+Function         Bfn.  Coefficient  Atom+Function  
  ----- ------------  ---------------      ----- ------------  ---------------
    16      1.003687   2 C  s         

 Vector    6  Occ=2.000000D+00  E=-1.028557D+01
              MO Center=  2.4D+00,  2.7D-01, -2.5D-02, r^2= 2.8D-02
   Bfn.  Coefficient  Atom+Function         Bfn.  Coefficient  Atom+Function  
  ----- ------------  ---------------      ----- ------------  ---------------
    31      1.003620   3 C  s         

 Vector    7  Occ=2.000000D+00  E=-1.025611D+01
              MO Center= -5.4D-01,  1.1D+00,  1.0D+00, r^2= 2.8D-02
   Bfn.  Coefficient  Atom+Function         Bfn.  Coefficient  Atom+Function  
  ----- ------------  ---------------      ----- ------------  ---------------
     1      1.003610   1 C  s         

 Vector    8  Occ=2.000000D+00  E=-1.021104D+01
              MO Center=  2.0D+00,  1.5D+00, -8.1D-01, r^2= 2.8D-02
   Bfn.  Coefficient  Atom+Function         Bfn.  Coefficient  Atom+Function  
  ----- ------------  ---------------      ----- ------------  ---------------
    46      1.003598   4 C  s         

 Vector    9  Occ=2.000000D+00  E=-7.985131D+00
              MO Center= -6.2D-01, -2.7D+00, -2.6D-01, r^2= 7.7D-02
   Bfn.  Coefficient  Atom+Function         Bfn.  Coefficient  Atom+Function  
  ----- ------------  ---------------      ----- ------------  ---------------
   146      1.012149  15 S  s               147      0.028364  15 S  s         

 Vector   10  Occ=2.000000D+00  E=-7.938872D+00
              MO Center= -1.5D+00,  2.0D+00, -2.6D-01, r^2= 7.7D-02
   Bfn.  Coefficient  Atom+Function         Bfn.  Coefficient  Atom+Function  
  ----- ------------  ---------------      ----- ------------  ---------------
   127      1.011781  14 S  s               128      0.028508  14 S  s         

 Vector   11  Occ=2.000000D+00  E=-5.951073D+00
              MO Center= -6.2D-01, -2.7D+00, -2.7D-01, r^2= 6.9D-02
   Bfn.  Coefficient  Atom+Function         Bfn.  Coefficient  Atom+Function  
  ----- ------------  ---------------      ----- ------------  ---------------
   150      0.890049  15 S  py              149     -0.411430  15 S  px        
   151     -0.202476  15 S  pz        

 Vector   12  Occ=2.000000D+00  E=-5.946065D+00
              MO Center= -6.3D-01, -2.7D+00, -2.7D-01, r^2= 6.9D-02
   Bfn.  Coefficient  Atom+Function         Bfn.  Coefficient  Atom+Function  
  ----- ------------  ---------------      ----- ------------  ---------------
   149      0.758247  15 S  px              151      0.467387  15 S  pz        
   150      0.456895  15 S  py        

 Vector   13  Occ=2.000000D+00  E=-5.938821D+00
              MO Center= -6.2D-01, -2.7D+00, -2.7D-01, r^2= 6.8D-02
   Bfn.  Coefficient  Atom+Function         Bfn.  Coefficient  Atom+Function  
  ----- ------------  ---------------      ----- ------------  ---------------
   151      0.861578  15 S  pz              149     -0.507752  15 S  px        
   150     -0.038681  15 S  py        

 Vector   14  Occ=2.000000D+00  E=-5.903160D+00
              MO Center= -1.5D+00,  2.0D+00, -2.7D-01, r^2= 6.9D-02
   Bfn.  Coefficient  Atom+Function         Bfn.  Coefficient  Atom+Function  
  ----- ------------  ---------------      ----- ------------  ---------------
   130      0.777196  14 S  px              132      0.629826  14 S  pz        
   131      0.041629  14 S  py        

 Vector   15  Occ=2.000000D+00  E=-5.900050D+00
              MO Center= -1.5D+00,  2.0D+00, -2.7D-01, r^2= 6.9D-02
   Bfn.  Coefficient  Atom+Function         Bfn.  Coefficient  Atom+Function  
  ----- ------------  ---------------      ----- ------------  ---------------
   131      0.911818  14 S  py              132     -0.343683  14 S  pz        
   130      0.229888  14 S  px        

 Vector   16  Occ=2.000000D+00  E=-5.892740D+00
              MO Center= -1.5D+00,  2.0D+00, -2.6D-01, r^2= 6.8D-02
   Bfn.  Coefficient  Atom+Function         Bfn.  Coefficient  Atom+Function  
  ----- ------------  ---------------      ----- ------------  ---------------
   132      0.698004  14 S  pz              130     -0.587784  14 S  px        
   131      0.411294  14 S  py        

 Vector   17  Occ=2.000000D+00  E=-1.121116D+00
              MO Center=  1.3D+00, -2.3D-01,  5.0D-01, r^2= 6.9D-01
   Bfn.  Coefficient  Atom+Function         Bfn.  Coefficient  Atom+Function  
  ----- ------------  ---------------      ----- ------------  ---------------
   112      0.410289  13 O  s               113      0.406330  13 O  s         
    17      0.152385   2 C  s                32      0.123705   3 C  s         
    19      0.105286   2 C  px               34     -0.086796   3 C  px        
   116     -0.069207  13 O  pz               18      0.065074   2 C  s         
   115      0.058745  13 O  py               36      0.050638   3 C  pz        

 Vector   18  Occ=2.000000D+00  E=-9.372091D-01
              MO Center= -3.6D-01, -1.0D+00,  3.0D-02, r^2= 1.5D+00
   Bfn.  Coefficient  Atom+Function         Bfn.  Coefficient  Atom+Function  
  ----- ------------  ---------------      ----- ------------  ---------------
    97      0.343121  12 N  s                98      0.325280  12 N  s         
    17      0.189521   2 C  s               147      0.188546  15 S  s         
    19     -0.110910   2 C  px              148      0.105363  15 S  s         
   113     -0.098118  13 O  s                20     -0.094261   2 C  py        
   112     -0.094314  13 O  s                99      0.093724  12 N  px        

 Vector   19  Occ=2.000000D+00  E=-8.109948D-01
              MO Center= -6.6D-01,  4.7D-01,  3.1D-01, r^2= 3.7D+00
   Bfn.  Coefficient  Atom+Function         Bfn.  Coefficient  Atom+Function  
  ----- ------------  ---------------      ----- ------------  ---------------
   128      0.263858  14 S  s                 2      0.247658   1 C  s         
   147     -0.201228  15 S  s               129      0.188747  14 S  s         
     3      0.179188   1 C  s                17      0.145087   2 C  s         
   148     -0.140383  15 S  s                61      0.110433   5 H  s         
   100      0.108020  12 N  py               18      0.098212   2 C  s         

 Vector   20  Occ=2.000000D+00  E=-7.614734D-01
              MO Center=  5.1D-01,  2.2D-01,  2.6D-02, r^2= 5.1D+00
   Bfn.  Coefficient  Atom+Function         Bfn.  Coefficient  Atom+Function  
  ----- ------------  ---------------      ----- ------------  ---------------
    32      0.232720   3 C  s               128      0.233057  14 S  s         
   114      0.223765  13 O  px              147      0.195482  15 S  s         
   129      0.191174  14 S  s                33      0.175326   3 C  s         
    17     -0.165735   2 C  s               148      0.153385  15 S  s         
    47      0.141309   4 C  s                18     -0.119427   2 C  s         

 Vector   21  Occ=2.000000D+00  E=-7.240499D-01
              MO Center=  5.2D-01, -4.0D-01, -1.6D-01, r^2= 5.5D+00
   Bfn.  Coefficient  Atom+Function         Bfn.  Coefficient  Atom+Function  
  ----- ------------  ---------------      ----- ------------  ---------------
   147      0.291535  15 S  s               148      0.240360  15 S  s         
    32     -0.192920   3 C  s                47     -0.184981   4 C  s         
    19      0.159971   2 C  px              100     -0.159356  12 N  py        
   128      0.150438  14 S  s                33     -0.145662   3 C  s         
    48     -0.127340   4 C  s               129      0.123929  14 S  s         

 Vector   22  Occ=2.000000D+00  E=-6.729792D-01
              MO Center=  2.5D-01,  4.0D-01,  6.5D-02, r^2= 5.2D+00
   Bfn.  Coefficient  Atom+Function         Bfn.  Coefficient  Atom+Function  
  ----- ------------  ---------------      ----- ------------  ---------------
   128      0.213486  14 S  s                47     -0.186608   4 C  s         
   147     -0.186268  15 S  s               129      0.184400  14 S  s         
   114      0.175930  13 O  px                2     -0.172850   1 C  s         
   148     -0.171335  15 S  s                48     -0.154836   4 C  s         
    20     -0.139683   2 C  py                3     -0.134634   1 C  s         

 Vector   23  Occ=2.000000D+00  E=-6.406333D-01
              MO Center=  5.0D-01,  8.3D-01,  1.5D-01, r^2= 4.5D+00
   Bfn.  Coefficient  Atom+Function         Bfn.  Coefficient  Atom+Function  
  ----- ------------  ---------------      ----- ------------  ---------------
   114      0.262903  13 O  px                2      0.215036   1 C  s         
   128     -0.208128  14 S  s                47     -0.201324   4 C  s         
     3      0.196932   1 C  s               129     -0.195308  14 S  s         
    19     -0.173959   2 C  px               48     -0.170562   4 C  s         
    35     -0.138861   3 C  py               36      0.126766   3 C  pz        

 Vector   24  Occ=2.000000D+00  E=-5.343896D-01
              MO Center=  4.0D-01, -8.6D-01,  6.7D-02, r^2= 5.7D+00
   Bfn.  Coefficient  Atom+Function         Bfn.  Coefficient  Atom+Function  
  ----- ------------  ---------------      ----- ------------  ---------------
    98      0.232187  12 N  s               153      0.192906  15 S  py        
   100     -0.186209  12 N  py               91     -0.179001  11 H  s         
    76     -0.173581   8 H  s                34     -0.156116   3 C  px        
   148     -0.154692  15 S  s                18     -0.146305   2 C  s         
    97      0.146189  12 N  s                17     -0.145164   2 C  s         

 Vector   25  Occ=2.000000D+00  E=-5.165862D-01
              MO Center=  1.1D+00,  7.3D-02,  3.2D-01, r^2= 4.1D+00
   Bfn.  Coefficient  Atom+Function         Bfn.  Coefficient  Atom+Function  
  ----- ------------  ---------------      ----- ------------  ---------------
   115     -0.269987  13 O  py               34      0.260254   3 C  px        
    76      0.191142   8 H  s                20     -0.171040   2 C  py        
   118     -0.156643  13 O  py              116      0.153312  13 O  pz        
   148     -0.129925  15 S  s                 5      0.126387   1 C  py        
     6      0.120784   1 C  pz               66      0.117281   6 H  s         

 Vector   26  Occ=2.000000D+00  E=-5.000603D-01
              MO Center=  9.9D-01, -6.8D-02, -8.4D-02, r^2= 5.4D+00
   Bfn.  Coefficient  Atom+Function         Bfn.  Coefficient  Atom+Function  
  ----- ------------  ---------------      ----- ------------  ---------------
   114      0.188975  13 O  px               76     -0.159345   8 H  s         
   100      0.158622  12 N  py              115     -0.148242  13 O  py        
    32     -0.145920   3 C  s                91      0.141830  11 H  s         
    19     -0.139141   2 C  px               20     -0.138582   2 C  py        
    34     -0.137503   3 C  px              152      0.132682  15 S  px        

 Vector   27  Occ=2.000000D+00  E=-4.943516D-01
              MO Center=  5.1D-01,  4.3D-01,  3.4D-01, r^2= 4.1D+00
   Bfn.  Coefficient  Atom+Function         Bfn.  Coefficient  Atom+Function  
  ----- ------------  ---------------      ----- ------------  ---------------
   116      0.284718  13 O  pz                5     -0.229194   1 C  py        
    21      0.183140   2 C  pz              119      0.181623  13 O  pz        
    66     -0.163618   6 H  s               113      0.150840  13 O  s         
    19     -0.143287   2 C  px               99     -0.133745  12 N  px        
    81      0.131430   9 H  s               114      0.114949  13 O  px        

 Vector   28  Occ=2.000000D+00  E=-4.490966D-01
              MO Center= -1.1D-01,  8.5D-01,  6.1D-01, r^2= 4.3D+00
   Bfn.  Coefficient  Atom+Function         Bfn.  Coefficient  Atom+Function  
  ----- ------------  ---------------      ----- ------------  ---------------
    71     -0.260528   7 H  s                 4      0.237767   1 C  px        
   116      0.210941  13 O  pz                6     -0.163321   1 C  pz        
    34      0.151793   3 C  px              129      0.144558  14 S  s         
   133      0.140539  14 S  px              119      0.132028  13 O  pz        
    76      0.125429   8 H  s                61     -0.115054   5 H  s         

 Vector   29  Occ=2.000000D+00  E=-4.320572D-01
              MO Center=  9.0D-01, -5.2D-02,  4.7D-02, r^2= 4.9D+00
   Bfn.  Coefficient  Atom+Function         Bfn.  Coefficient  Atom+Function  
  ----- ------------  ---------------      ----- ------------  ---------------
   116      0.245988  13 O  pz               35      0.235496   3 C  py        
    51      0.177054   4 C  pz              115      0.167643  13 O  py        
   119      0.154886  13 O  pz              101      0.145699  12 N  pz        
    20     -0.143073   2 C  py               81     -0.130049   9 H  s         
   152      0.129194  15 S  px               91      0.126171  11 H  s         

 Vector   30  Occ=2.000000D+00  E=-3.951845D-01
              MO Center=  1.9D-01, -5.6D-02, -1.7D-01, r^2= 6.9D+00
   Bfn.  Coefficient  Atom+Function         Bfn.  Coefficient  Atom+Function  
  ----- ------------  ---------------      ----- ------------  ---------------
    49      0.220367   4 C  px              148      0.217892  15 S  s         
   100      0.196343  12 N  py              153     -0.195813  15 S  py        
    86     -0.189234  10 H  s                66      0.180006   6 H  s         
    81      0.162287   9 H  s               154     -0.144503  15 S  pz        
     5      0.143428   1 C  py              156     -0.124676  15 S  py        

 Vector   31  Occ=2.000000D+00  E=-3.901668D-01
              MO Center= -3.5D-01,  6.0D-02,  3.8D-02, r^2= 6.9D+00
   Bfn.  Coefficient  Atom+Function         Bfn.  Coefficient  Atom+Function  
  ----- ------------  ---------------      ----- ------------  ---------------
     4      0.216298   1 C  px               61      0.215753   5 H  s         
   148     -0.195801  15 S  s               133     -0.193458  14 S  px        
   152      0.179219  15 S  px              153      0.152157  15 S  py        
    91      0.148507  11 H  s                35     -0.147659   3 C  py        
    66      0.141647   6 H  s               135     -0.132520  14 S  pz        

 Vector   32  Occ=2.000000D+00  E=-3.794008D-01
              MO Center=  6.1D-01,  8.3D-01, -3.6D-01, r^2= 6.3D+00
   Bfn.  Coefficient  Atom+Function         Bfn.  Coefficient  Atom+Function  
  ----- ------------  ---------------      ----- ------------  ---------------
    49      0.296292   4 C  px               86     -0.250728  10 H  s         
    81      0.212702   9 H  s                 6     -0.196910   1 C  pz        
   133      0.145669  14 S  px              148     -0.146115  15 S  s         
    61     -0.142411   5 H  s                87     -0.124359  10 H  s         
   152      0.117975  15 S  px               66     -0.117364   6 H  s         

 Vector   33  Occ=2.000000D+00  E=-3.667400D-01
              MO Center= -3.6D-01,  2.7D-01, -1.8D-02, r^2= 5.8D+00
   Bfn.  Coefficient  Atom+Function         Bfn.  Coefficient  Atom+Function  
  ----- ------------  ---------------      ----- ------------  ---------------
   101      0.245715  12 N  pz              134      0.244212  14 S  py        
   129      0.235595  14 S  s               116     -0.219693  13 O  pz        
   137      0.182105  14 S  py              152     -0.157554  15 S  px        
   104      0.153009  12 N  pz              119     -0.151924  13 O  pz        
     6      0.135149   1 C  pz               21      0.133852   2 C  pz        

 Vector   34  Occ=2.000000D+00  E=-3.542883D-01
              MO Center=  6.2D-01,  2.0D-01,  3.5D-01, r^2= 4.7D+00
   Bfn.  Coefficient  Atom+Function         Bfn.  Coefficient  Atom+Function  
  ----- ------------  ---------------      ----- ------------  ---------------
   115      0.355518  13 O  py              118      0.242874  13 O  py        
    36      0.196928   3 C  pz               71      0.187077   7 H  s         
     4     -0.183355   1 C  px               50      0.177088   4 C  py        
    99      0.140787  12 N  px               76      0.139071   8 H  s         
     6      0.127622   1 C  pz              134      0.122021  14 S  py        

 Vector   35  Occ=2.000000D+00  E=-3.327885D-01
              MO Center= -4.3D-01,  6.8D-02, -5.0D-04, r^2= 6.1D+00
   Bfn.  Coefficient  Atom+Function         Bfn.  Coefficient  Atom+Function  
  ----- ------------  ---------------      ----- ------------  ---------------
   129      0.232248  14 S  s               134      0.222896  14 S  py        
   154     -0.214973  15 S  pz              101     -0.213000  12 N  pz        
     5     -0.196517   1 C  py              115     -0.189945  13 O  py        
   157     -0.190419  15 S  pz              135     -0.179832  14 S  pz        
   137      0.156858  14 S  py              104     -0.145821  12 N  pz        

 Vector   36  Occ=2.000000D+00  E=-2.918986D-01
              MO Center= -6.3D-01, -1.0D+00, -7.5D-02, r^2= 2.8D+00
   Bfn.  Coefficient  Atom+Function         Bfn.  Coefficient  Atom+Function  
  ----- ------------  ---------------      ----- ------------  ---------------
    99      0.388609  12 N  px              102      0.296742  12 N  px        
    98     -0.245522  12 N  s               100     -0.188494  12 N  py        
    91     -0.186763  11 H  s               154     -0.182240  15 S  pz        
   101      0.162893  12 N  pz               92     -0.147227  11 H  s         
   157     -0.142664  15 S  pz               97     -0.133296  12 N  s         

 Vector   37  Occ=2.000000D+00  E=-2.441093D-01
              MO Center= -7.7D-01,  1.2D+00, -1.8D-01, r^2= 5.2D+00
   Bfn.  Coefficient  Atom+Function         Bfn.  Coefficient  Atom+Function  
  ----- ------------  ---------------      ----- ------------  ---------------
   135      0.356806  14 S  pz              138      0.345165  14 S  pz        
   133     -0.247163  14 S  px              136     -0.241366  14 S  px        
   137      0.163308  14 S  py              134      0.151769  14 S  py        
   157     -0.141637  15 S  pz              154     -0.139853  15 S  pz        
    71     -0.127921   7 H  s                49     -0.123032   4 C  px        

 Vector   38  Occ=2.000000D+00  E=-2.338025D-01
              MO Center=  1.0D+00,  8.4D-01, -2.5D-01, r^2= 5.1D+00
   Bfn.  Coefficient  Atom+Function         Bfn.  Coefficient  Atom+Function  
  ----- ------------  ---------------      ----- ------------  ---------------
    51      0.251452   4 C  pz               36      0.222794   3 C  pz        
    50      0.217963   4 C  py              115     -0.203880  13 O  py        
    54      0.195184   4 C  pz              136     -0.178791  14 S  px        
   133     -0.172646  14 S  px               39      0.162091   3 C  pz        
    53      0.162459   4 C  py              118     -0.160850  13 O  py        

 Vector   39  Occ=2.000000D+00  E=-2.233126D-01
              MO Center= -6.9D-02, -9.9D-01, -1.1D-01, r^2= 5.3D+00
   Bfn.  Coefficient  Atom+Function         Bfn.  Coefficient  Atom+Function  
  ----- ------------  ---------------      ----- ------------  ---------------
   157      0.319148  15 S  pz              154      0.311442  15 S  pz        
    99      0.227290  12 N  px              116      0.207998  13 O  pz        
    21     -0.205888   2 C  pz              152     -0.202506  15 S  px        
   155     -0.195869  15 S  px              102      0.193509  12 N  px        
   119      0.170203  13 O  pz              101     -0.166169  12 N  pz        

 Vector   40  Occ=0.000000D+00  E=-4.648147D-02
              MO Center= -1.7D-01, -3.4D-01,  8.0D-02, r^2= 4.2D+00
   Bfn.  Coefficient  Atom+Function         Bfn.  Coefficient  Atom+Function  
  ----- ------------  ---------------      ----- ------------  ---------------
   104     -0.385613  12 N  pz               21      0.379963   2 C  pz        
   101     -0.335813  12 N  pz               24      0.292331   2 C  pz        
    72     -0.262254   7 H  s               156     -0.240733  15 S  py        
    23     -0.235637   2 C  py               33      0.218820   3 C  s         
    98      0.190123  12 N  s               136      0.186420  14 S  px        

 Vector   41  Occ=0.000000D+00  E=-1.510295D-02
              MO Center=  1.7D+00,  4.4D-01, -1.5D-01, r^2= 4.3D+00
   Bfn.  Coefficient  Atom+Function         Bfn.  Coefficient  Atom+Function  
  ----- ------------  ---------------      ----- ------------  ---------------
    39      0.437164   3 C  pz               36      0.379835   3 C  pz        
    54     -0.332417   4 C  pz               92      0.320567  11 H  s         
    53     -0.298085   4 C  py               51     -0.264832   4 C  pz        
   155     -0.217000  15 S  px               38      0.214264   3 C  py        
    35      0.213014   3 C  py               50     -0.211977   4 C  py        

 Vector   42  Occ=0.000000D+00  E=-6.390780D-03
              MO Center= -1.9D-01, -1.9D+00, -8.0D-02, r^2= 5.3D+00
   Bfn.  Coefficient  Atom+Function         Bfn.  Coefficient  Atom+Function  
  ----- ------------  ---------------      ----- ------------  ---------------
    92      0.692936  11 H  s               156      0.556876  15 S  py        
   155     -0.538535  15 S  px               98     -0.510409  12 N  s         
     3     -0.461442   1 C  s               103      0.277881  12 N  py        
   153      0.247440  15 S  py               91      0.246001  11 H  s         
   152     -0.236081  15 S  px              157     -0.227104  15 S  pz        

 Vector   43  Occ=0.000000D+00  E= 1.648131D-02
              MO Center= -1.0D+00,  1.2D+00,  3.8D-01, r^2= 5.5D+00
   Bfn.  Coefficient  Atom+Function         Bfn.  Coefficient  Atom+Function  
  ----- ------------  ---------------      ----- ------------  ---------------
     3      1.032214   1 C  s                72     -0.694881   7 H  s         
    62     -0.527592   5 H  s               138     -0.496193  14 S  pz        
   136     -0.464870  14 S  px                7     -0.382517   1 C  px        
    67     -0.296524   6 H  s                87     -0.289602  10 H  s         
    48      0.281894   4 C  s                92      0.265866  11 H  s         

 Vector   44  Occ=0.000000D+00  E= 4.712456D-02
              MO Center=  3.1D-01, -1.5D+00,  2.9D-01, r^2= 7.1D+00
   Bfn.  Coefficient  Atom+Function         Bfn.  Coefficient  Atom+Function  
  ----- ------------  ---------------      ----- ------------  ---------------
    92      0.936982  11 H  s               148     -0.902111  15 S  s         
   156     -0.612699  15 S  py               72      0.569690   7 H  s         
    77      0.560695   8 H  s                98      0.467733  12 N  s         
    33     -0.461416   3 C  s               103     -0.383494  12 N  py        
   155     -0.377282  15 S  px                7      0.364076   1 C  px        

 Vector   45  Occ=0.000000D+00  E= 6.704719D-02
              MO Center=  1.1D-01,  7.5D-01,  1.1D-01, r^2= 8.8D+00
   Bfn.  Coefficient  Atom+Function         Bfn.  Coefficient  Atom+Function  
  ----- ------------  ---------------      ----- ------------  ---------------
   129      1.067445  14 S  s                77      0.920471   8 H  s         
    33     -0.763820   3 C  s                62     -0.719214   5 H  s         
     9      0.638672   1 C  pz              137     -0.590657  14 S  py        
     3     -0.448959   1 C  s                72     -0.390137   7 H  s         
    87     -0.386317  10 H  s               138      0.374524  14 S  pz        

 Vector   46  Occ=0.000000D+00  E= 7.606515D-02
              MO Center=  1.7D+00,  3.0D-01, -6.6D-02, r^2= 9.0D+00
   Bfn.  Coefficient  Atom+Function         Bfn.  Coefficient  Atom+Function  
  ----- ------------  ---------------      ----- ------------  ---------------
    77      1.308897   8 H  s                33     -0.866383   3 C  s         
   129     -0.721955  14 S  s                62      0.595358   5 H  s         
    48     -0.569135   4 C  s                82      0.552388   9 H  s         
    37     -0.497408   3 C  px               67      0.479070   6 H  s         
     9     -0.450853   1 C  pz               18     -0.452925   2 C  s         

 Vector   47  Occ=0.000000D+00  E= 9.391865D-02
              MO Center=  2.8D-01,  8.7D-01,  8.4D-02, r^2= 8.7D+00
   Bfn.  Coefficient  Atom+Function         Bfn.  Coefficient  Atom+Function  
  ----- ------------  ---------------      ----- ------------  ---------------
    48      1.292421   4 C  s                72      1.032856   7 H  s         
    87     -0.908234  10 H  s                82     -0.663753   9 H  s         
     3     -0.652685   1 C  s               148      0.414928  15 S  s         
     9     -0.410747   1 C  pz                7      0.401882   1 C  px        
    92     -0.400542  11 H  s                98     -0.327874  12 N  s         

 Vector   48  Occ=0.000000D+00  E= 1.034024D-01
              MO Center=  1.2D-01,  1.5D+00,  1.2D+00, r^2= 5.7D+00
   Bfn.  Coefficient  Atom+Function         Bfn.  Coefficient  Atom+Function  
  ----- ------------  ---------------      ----- ------------  ---------------
    67      1.881348   6 H  s                 3     -1.031280   1 C  s         
     7     -0.671999   1 C  px                8     -0.661252   1 C  py        
    62     -0.647067   5 H  s                33      0.417111   3 C  s         
    77     -0.357874   8 H  s               129      0.351625  14 S  s         
   148     -0.334539  15 S  s                 9     -0.313422   1 C  pz        

 Vector   49  Occ=0.000000D+00  E= 1.090761D-01
              MO Center=  6.7D-01,  1.2D+00, -6.6D-01, r^2= 1.1D+01
   Bfn.  Coefficient  Atom+Function         Bfn.  Coefficient  Atom+Function  
  ----- ------------  ---------------      ----- ------------  ---------------
    82     -1.362918   9 H  s                48      1.282022   4 C  s         
    62      1.010020   5 H  s               129     -0.716530  14 S  s         
    72     -0.634348   7 H  s               137      0.501308  14 S  py        
   136      0.464852  14 S  px                7     -0.396255   1 C  px        
    54     -0.376664   4 C  pz               52      0.369996   4 C  px        

 Vector   50  Occ=0.000000D+00  E= 1.355231D-01
              MO Center=  1.3D+00,  9.1D-01, -4.7D-01, r^2= 7.1D+00
   Bfn.  Coefficient  Atom+Function         Bfn.  Coefficient  Atom+Function  
  ----- ------------  ---------------      ----- ------------  ---------------
    82      1.119419   9 H  s                87     -0.850879  10 H  s         
    18      0.684642   2 C  s                62      0.677977   5 H  s         
    52     -0.646644   4 C  px              113     -0.637820  13 O  s         
    77     -0.558236   8 H  s                33      0.531886   3 C  s         
    38     -0.522995   3 C  py               54      0.423639   4 C  pz        

 Vector   51  Occ=0.000000D+00  E= 1.835836D-01
              MO Center=  3.6D-01,  7.4D-01,  2.5D-01, r^2= 5.8D+00
   Bfn.  Coefficient  Atom+Function         Bfn.  Coefficient  Atom+Function  
  ----- ------------  ---------------      ----- ------------  ---------------
    18      2.305613   2 C  s                 3     -1.315802   1 C  s         
     8      1.158857   1 C  py               87      1.038355  10 H  s         
    52      0.772691   4 C  px              113     -0.632534  13 O  s         
    82     -0.627728   9 H  s                 9      0.563046   1 C  pz        
    77      0.553554   8 H  s                37     -0.529462   3 C  px        

 Vector   52  Occ=0.000000D+00  E= 2.092411D-01
              MO Center=  5.4D-01,  4.6D-01,  2.3D-01, r^2= 6.5D+00
   Bfn.  Coefficient  Atom+Function         Bfn.  Coefficient  Atom+Function  
  ----- ------------  ---------------      ----- ------------  ---------------
     3      1.678952   1 C  s                18     -1.490478   2 C  s         
    23     -1.189654   2 C  py                8     -1.177548   1 C  py        
    87      0.943267  10 H  s               113     -0.811245  13 O  s         
    37     -0.806225   3 C  px               52      0.725453   4 C  px        
    82     -0.662900   9 H  s                24     -0.621333   2 C  pz        

 Vector   53  Occ=0.000000D+00  E= 2.622104D-01
              MO Center=  1.7D+00,  1.0D+00, -4.5D-01, r^2= 4.5D+00
   Bfn.  Coefficient  Atom+Function         Bfn.  Coefficient  Atom+Function  
  ----- ------------  ---------------      ----- ------------  ---------------
    33      2.409047   3 C  s                48     -1.792412   4 C  s         
    53      1.566038   4 C  py               37     -1.241829   3 C  px        
    54     -1.219297   4 C  pz               38      1.109859   3 C  py        
    77      0.788824   8 H  s                22     -0.636771   2 C  px        
     3     -0.490891   1 C  s                82     -0.490583   9 H  s         

 Vector   54  Occ=0.000000D+00  E= 2.885080D-01
              MO Center=  1.0D+00, -1.4D-01,  3.0D-02, r^2= 5.5D+00
   Bfn.  Coefficient  Atom+Function         Bfn.  Coefficient  Atom+Function  
  ----- ------------  ---------------      ----- ------------  ---------------
    18      1.717222   2 C  s                98     -1.517889  12 N  s         
    23     -1.427145   2 C  py               38      1.094816   3 C  py        
    39     -0.956584   3 C  pz              117      0.706939  13 O  px        
    48     -0.676891   4 C  s               102     -0.662112  12 N  px        
    24     -0.589631   2 C  pz               53      0.589891   4 C  py        

 Vector   55  Occ=0.000000D+00  E= 3.263736D-01
              MO Center= -1.0D-01, -4.7D-01,  1.2D-01, r^2= 7.3D+00
   Bfn.  Coefficient  Atom+Function         Bfn.  Coefficient  Atom+Function  
  ----- ------------  ---------------      ----- ------------  ---------------
    22      1.857219   2 C  px               98      1.425156  12 N  s         
     7     -0.821042   1 C  px               24      0.772275   2 C  pz        
    38      0.716314   3 C  py               18     -0.685887   2 C  s         
    92     -0.658012  11 H  s                48     -0.635259   4 C  s         
   113     -0.628967  13 O  s               103      0.620467  12 N  py        

 Vector   56  Occ=0.000000D+00  E= 3.365185D-01
              MO Center= -1.3D+00,  8.8D-01,  1.9D-02, r^2= 5.7D+00
   Bfn.  Coefficient  Atom+Function         Bfn.  Coefficient  Atom+Function  
  ----- ------------  ---------------      ----- ------------  ---------------
    62      0.822052   5 H  s                98      0.717830  12 N  s         
    23      0.613329   2 C  py               61     -0.601918   5 H  s         
    22      0.562597   2 C  px                3     -0.481349   1 C  s         
     9      0.440568   1 C  pz              140     -0.441777  14 S  dxy       
   137     -0.302135  14 S  py              102      0.273431  12 N  px        

 Vector   57  Occ=0.000000D+00  E= 3.644758D-01
              MO Center=  2.7D-01, -9.5D-01,  2.5D-01, r^2= 6.6D+00
   Bfn.  Coefficient  Atom+Function         Bfn.  Coefficient  Atom+Function  
  ----- ------------  ---------------      ----- ------------  ---------------
    22      1.350132   2 C  px               98      1.011480  12 N  s         
    18     -0.753675   2 C  s                23      0.713150   2 C  py        
    24      0.708690   2 C  pz               92      0.691630  11 H  s         
   103      0.667575  12 N  py               91     -0.599363  11 H  s         
    67      0.524925   6 H  s               160     -0.504029  15 S  dxz       

 Vector   58  Occ=0.000000D+00  E= 3.845638D-01
              MO Center= -2.8D-01, -1.2D+00, -8.1D-02, r^2= 4.6D+00
   Bfn.  Coefficient  Atom+Function         Bfn.  Coefficient  Atom+Function  
  ----- ------------  ---------------      ----- ------------  ---------------
   148     -0.853943  15 S  s                23      0.821790   2 C  py        
   159     -0.647864  15 S  dxy               3     -0.586621   1 C  s         
    20     -0.545427   2 C  py              103     -0.463001  12 N  py        
    18      0.445359   2 C  s                38      0.422351   3 C  py        
    48     -0.420101   4 C  s               147      0.411699  15 S  s         

 Vector   59  Occ=0.000000D+00  E= 4.097678D-01
              MO Center=  2.6D-01,  1.4D+00, -2.0D-01, r^2= 6.1D+00
   Bfn.  Coefficient  Atom+Function         Bfn.  Coefficient  Atom+Function  
  ----- ------------  ---------------      ----- ------------  ---------------
     7      0.599874   1 C  px               87     -0.556307  10 H  s         
   137     -0.522577  14 S  py               18      0.450960   2 C  s         
    38      0.445067   3 C  py               23     -0.360189   2 C  py        
    71      0.359952   7 H  s               134      0.330510  14 S  py        
   143      0.305662  14 S  dyz             138      0.302396  14 S  pz        

 Vector   60  Occ=0.000000D+00  E= 4.223371D-01
              MO Center=  1.5D+00,  1.1D-01,  7.3D-02, r^2= 7.1D+00
   Bfn.  Coefficient  Atom+Function         Bfn.  Coefficient  Atom+Function  
  ----- ------------  ---------------      ----- ------------  ---------------
    18      1.026800   2 C  s               148      0.699128  15 S  s         
    76      0.656499   8 H  s                77     -0.543853   8 H  s         
    52     -0.489454   4 C  px               98     -0.462830  12 N  s         
    48     -0.436391   4 C  s                53      0.432977   4 C  py        
     3     -0.422169   1 C  s               147     -0.368077  15 S  s         

 Vector   61  Occ=0.000000D+00  E= 4.342865D-01
              MO Center= -2.6D-01,  4.9D-01,  2.9D-01, r^2= 6.9D+00
   Bfn.  Coefficient  Atom+Function         Bfn.  Coefficient  Atom+Function  
  ----- ------------  ---------------      ----- ------------  ---------------
    72     -0.567227   7 H  s               148      0.557879  15 S  s         
     8      0.518045   1 C  py               71      0.514203   7 H  s         
   143      0.445569  14 S  dyz              22     -0.437178   2 C  px        
    86     -0.378752  10 H  s               136     -0.350068  14 S  px        
    87      0.333568  10 H  s               129     -0.333091  14 S  s         

 Vector   62  Occ=0.000000D+00  E= 4.427315D-01
              MO Center=  1.6D-02, -7.7D-01, -1.2D-01, r^2= 9.7D+00
   Bfn.  Coefficient  Atom+Function         Bfn.  Coefficient  Atom+Function  
  ----- ------------  ---------------      ----- ------------  ---------------
   156      0.893360  15 S  py               22      0.883826   2 C  px        
   153     -0.566408  15 S  py                7     -0.537179   1 C  px        
    23      0.530851   2 C  py              103      0.493217  12 N  py        
    87     -0.487532  10 H  s               155      0.428268  15 S  px        
    39     -0.381404   3 C  pz              152     -0.374137  15 S  px        

 Vector   63  Occ=0.000000D+00  E= 4.449786D-01
              MO Center= -2.6D-01,  1.7D-01,  5.2D-01, r^2= 6.7D+00
   Bfn.  Coefficient  Atom+Function         Bfn.  Coefficient  Atom+Function  
  ----- ------------  ---------------      ----- ------------  ---------------
     9      0.874764   1 C  pz               98     -0.796546  12 N  s         
    22     -0.753260   2 C  px               24     -0.633550   2 C  pz        
    38     -0.623576   3 C  py                7      0.543525   1 C  px        
   141      0.512045  14 S  dxz              48      0.470804   4 C  s         
   129      0.434781  14 S  s                66     -0.421837   6 H  s         

 Vector   64  Occ=0.000000D+00  E= 4.544256D-01
              MO Center= -1.9D-01, -7.4D-01, -2.5D-01, r^2= 8.5D+00
   Bfn.  Coefficient  Atom+Function         Bfn.  Coefficient  Atom+Function  
  ----- ------------  ---------------      ----- ------------  ---------------
   148      1.118508  15 S  s               147     -0.683599  15 S  s         
     3     -0.674884   1 C  s                23      0.620603   2 C  py        
   146     -0.516610  15 S  s                87     -0.511663  10 H  s         
    86      0.440056  10 H  s                 8      0.419280   1 C  py        
     9      0.391284   1 C  pz              157     -0.358081  15 S  pz        

 Vector   65  Occ=0.000000D+00  E= 4.627764D-01
              MO Center=  9.0D-02,  1.3D+00, -3.3D-01, r^2= 7.5D+00
   Bfn.  Coefficient  Atom+Function         Bfn.  Coefficient  Atom+Function  
  ----- ------------  ---------------      ----- ------------  ---------------
   137      0.743654  14 S  py                3      0.664399   1 C  s         
    38      0.571289   3 C  py               39     -0.543131   3 C  pz        
   134     -0.519194  14 S  py              138     -0.412657  14 S  pz        
   128     -0.342616  14 S  s                22      0.332464   2 C  px        
     7     -0.302581   1 C  px              136     -0.303616  14 S  px        

 Vector   66  Occ=0.000000D+00  E= 4.659573D-01
              MO Center= -2.2D-01, -5.4D-01, -6.3D-02, r^2= 8.7D+00
   Bfn.  Coefficient  Atom+Function         Bfn.  Coefficient  Atom+Function  
  ----- ------------  ---------------      ----- ------------  ---------------
    22      1.444900   2 C  px               18     -0.937487   2 C  s         
    98      0.853721  12 N  s                 8     -0.783760   1 C  py        
     3      0.776066   1 C  s               157     -0.570283  15 S  pz        
   154      0.560121  15 S  pz              156     -0.525881  15 S  py        
   129     -0.470828  14 S  s               113     -0.462334  13 O  s         

 Vector   67  Occ=0.000000D+00  E= 4.878346D-01
              MO Center= -9.3D-03,  7.1D-01, -9.3D-03, r^2= 6.9D+00
   Bfn.  Coefficient  Atom+Function         Bfn.  Coefficient  Atom+Function  
  ----- ------------  ---------------      ----- ------------  ---------------
    87      0.743688  10 H  s                22      0.605573   2 C  px        
   148      0.548101  15 S  s               137     -0.378515  14 S  py        
   140      0.372526  14 S  dxy              52      0.361649   4 C  px        
    72      0.349896   7 H  s                23     -0.328344   2 C  py        
    39     -0.326551   3 C  pz              157      0.314791  15 S  pz        

 Vector   68  Occ=0.000000D+00  E= 4.936745D-01
              MO Center= -2.8D-02,  9.8D-01, -3.5D-02, r^2= 6.5D+00
   Bfn.  Coefficient  Atom+Function         Bfn.  Coefficient  Atom+Function  
  ----- ------------  ---------------      ----- ------------  ---------------
     9      0.920780   1 C  pz               38      0.761910   3 C  py        
     3     -0.736247   1 C  s               129      0.677968  14 S  s         
    23      0.645436   2 C  py              137     -0.610884  14 S  py        
    72     -0.584754   7 H  s               136      0.568631  14 S  px        
   134      0.469507  14 S  py                8     -0.428959   1 C  py        

 Vector   69  Occ=0.000000D+00  E= 4.956113D-01
              MO Center=  4.8D-01, -3.1D-01,  1.1D-01, r^2= 6.9D+00
   Bfn.  Coefficient  Atom+Function         Bfn.  Coefficient  Atom+Function  
  ----- ------------  ---------------      ----- ------------  ---------------
    39      0.771047   3 C  pz              148      0.719201  15 S  s         
    98     -0.597261  12 N  s                36     -0.499107   3 C  pz        
   156      0.500902  15 S  py               33      0.438676   3 C  s         
   162     -0.437509  15 S  dyz             147     -0.387169  15 S  s         
     7      0.369213   1 C  px              153     -0.357706  15 S  py        

 Vector   70  Occ=0.000000D+00  E= 5.075016D-01
              MO Center= -2.2D-01, -4.7D-01, -5.7D-02, r^2= 8.5D+00
   Bfn.  Coefficient  Atom+Function         Bfn.  Coefficient  Atom+Function  
  ----- ------------  ---------------      ----- ------------  ---------------
   138      0.546906  14 S  pz              162      0.540313  15 S  dyz       
    18      0.486747   2 C  s               155      0.474105  15 S  px        
   157     -0.469402  15 S  pz              129      0.454356  14 S  s         
     3     -0.432791   1 C  s                72      0.430828   7 H  s         
   135     -0.425265  14 S  pz              152     -0.411593  15 S  px        

 Vector   71  Occ=0.000000D+00  E= 5.128791D-01
              MO Center= -7.4D-01,  1.7D-01, -1.1D-01, r^2= 7.8D+00
   Bfn.  Coefficient  Atom+Function         Bfn.  Coefficient  Atom+Function  
  ----- ------------  ---------------      ----- ------------  ---------------
   138      0.958505  14 S  pz              129      0.729276  14 S  s         
   135     -0.707009  14 S  pz               98      0.581657  12 N  s         
     8     -0.527591   1 C  py              148     -0.512768  15 S  s         
   156     -0.491022  15 S  py                3     -0.435331   1 C  s         
    22      0.433650   2 C  px              159      0.362378  15 S  dxy       

 Vector   72  Occ=0.000000D+00  E= 5.246159D-01
              MO Center=  1.6D-01, -5.7D-01, -8.7D-02, r^2= 7.3D+00
   Bfn.  Coefficient  Atom+Function         Bfn.  Coefficient  Atom+Function  
  ----- ------------  ---------------      ----- ------------  ---------------
    23      0.694838   2 C  py               39     -0.596733   3 C  pz        
    18     -0.571727   2 C  s                 3     -0.538580   1 C  s         
   160      0.401860  15 S  dxz             138      0.388013  14 S  pz        
   156      0.363031  15 S  py               36      0.360738   3 C  pz        
    48     -0.361302   4 C  s               143     -0.349598  14 S  dyz       

 Vector   73  Occ=0.000000D+00  E= 5.367037D-01
              MO Center=  4.4D-01, -1.2D-01,  2.6D-02, r^2= 7.4D+00
   Bfn.  Coefficient  Atom+Function         Bfn.  Coefficient  Atom+Function  
  ----- ------------  ---------------      ----- ------------  ---------------
    18      0.970379   2 C  s                53     -0.708621   4 C  py        
    39      0.704002   3 C  pz              129      0.649322  14 S  s         
   113     -0.581527  13 O  s                 7     -0.478163   1 C  px        
   160      0.416597  15 S  dxz              50      0.379393   4 C  py        
   128     -0.379750  14 S  s                36     -0.371982   3 C  pz        

 Vector   74  Occ=0.000000D+00  E= 5.512865D-01
              MO Center=  4.7D-01,  6.9D-01, -2.2D-01, r^2= 7.2D+00
   Bfn.  Coefficient  Atom+Function         Bfn.  Coefficient  Atom+Function  
  ----- ------------  ---------------      ----- ------------  ---------------
    54      0.556875   4 C  pz               53      0.524407   4 C  py        
   148     -0.525914  15 S  s                39     -0.495467   3 C  pz        
   136      0.495124  14 S  px               37     -0.418591   3 C  px        
    38     -0.401416   3 C  py              139     -0.379914  14 S  dxx       
    51     -0.372215   4 C  pz              160      0.361296  15 S  dxz       

 Vector   75  Occ=0.000000D+00  E= 5.647701D-01
              MO Center= -2.6D-01, -9.1D-01,  4.3D-01, r^2= 6.9D+00
   Bfn.  Coefficient  Atom+Function         Bfn.  Coefficient  Atom+Function  
  ----- ------------  ---------------      ----- ------------  ---------------
    72      0.984556   7 H  s                92     -0.798203  11 H  s         
    22     -0.752788   2 C  px              155      0.744668  15 S  px        
    24     -0.695991   2 C  pz                7      0.586205   1 C  px        
   148      0.578095  15 S  s               129     -0.535840  14 S  s         
    33      0.528794   3 C  s                37     -0.523935   3 C  px        

 Vector   76  Occ=0.000000D+00  E= 5.796442D-01
              MO Center= -9.5D-02, -3.3D-01, -2.1D-03, r^2= 7.0D+00
   Bfn.  Coefficient  Atom+Function         Bfn.  Coefficient  Atom+Function  
  ----- ------------  ---------------      ----- ------------  ---------------
   162     -0.629441  15 S  dyz              37      0.597670   3 C  px        
    72     -0.533262   7 H  s                77     -0.501705   8 H  s         
     7     -0.488261   1 C  px               38     -0.485496   3 C  py        
   159      0.465117  15 S  dxy               3      0.455360   1 C  s         
    22      0.438508   2 C  px               52      0.405707   4 C  px        

 Vector   77  Occ=0.000000D+00  E= 5.948010D-01
              MO Center= -6.2D-02, -1.0D-03, -1.7D-02, r^2= 7.9D+00
   Bfn.  Coefficient  Atom+Function         Bfn.  Coefficient  Atom+Function  
  ----- ------------  ---------------      ----- ------------  ---------------
   148      1.289798  15 S  s                92     -0.984080  11 H  s         
     8     -0.940268   1 C  py              155      0.732904  15 S  px        
    23     -0.711179   2 C  py              147     -0.585702  15 S  s         
    62      0.552991   5 H  s                67      0.549526   6 H  s         
    22      0.509715   2 C  px              138      0.484748  14 S  pz        

 Vector   78  Occ=0.000000D+00  E= 6.123610D-01
              MO Center=  4.8D-01, -4.1D-01,  3.1D-02, r^2= 8.8D+00
   Bfn.  Coefficient  Atom+Function         Bfn.  Coefficient  Atom+Function  
  ----- ------------  ---------------      ----- ------------  ---------------
   148      1.363751  15 S  s                92     -1.095525  11 H  s         
   129      0.842067  14 S  s                37     -0.728915   3 C  px        
    72     -0.717306   7 H  s                52      0.658342   4 C  px        
    77      0.653603   8 H  s               147     -0.642352  15 S  s         
     9      0.636257   1 C  pz              155      0.614869  15 S  px        

 Vector   79  Occ=0.000000D+00  E= 6.167011D-01
              MO Center=  1.0D+00, -4.1D-01, -9.3D-02, r^2= 8.3D+00
   Bfn.  Coefficient  Atom+Function         Bfn.  Coefficient  Atom+Function  
  ----- ------------  ---------------      ----- ------------  ---------------
    77      1.307514   8 H  s                38      1.282718   3 C  py        
    48     -1.142622   4 C  s                37     -1.039035   3 C  px        
   129      0.783652  14 S  s                54     -0.720695   4 C  pz        
    82     -0.668860   9 H  s                53      0.648827   4 C  py        
    67     -0.635927   6 H  s               162     -0.602655  15 S  dyz       

 Vector   80  Occ=0.000000D+00  E= 6.344174D-01
              MO Center=  1.1D-01,  1.2D+00,  1.7D-02, r^2= 8.0D+00
   Bfn.  Coefficient  Atom+Function         Bfn.  Coefficient  Atom+Function  
  ----- ------------  ---------------      ----- ------------  ---------------
   129      1.778119  14 S  s                67     -1.089361   6 H  s         
   148      0.989698  15 S  s                62     -0.897050   5 H  s         
    82      0.860398   9 H  s               128     -0.769892  14 S  s         
     8      0.614808   1 C  py              127     -0.596508  14 S  s         
    54      0.561580   4 C  pz              137     -0.555044  14 S  py        

 Vector   81  Occ=0.000000D+00  E= 6.390583D-01
              MO Center=  4.1D-01,  7.7D-01, -3.1D-01, r^2= 7.1D+00
   Bfn.  Coefficient  Atom+Function         Bfn.  Coefficient  Atom+Function  
  ----- ------------  ---------------      ----- ------------  ---------------
    53      1.033008   4 C  py               38      1.001286   3 C  py        
    22      0.991765   2 C  px               54     -0.946063   4 C  pz        
    82     -0.938810   9 H  s                33      0.922679   3 C  s         
    37     -0.758847   3 C  px                3      0.674564   1 C  s         
    77      0.628721   8 H  s               129     -0.581334  14 S  s         

 Vector   82  Occ=0.000000D+00  E= 6.592685D-01
              MO Center=  8.4D-01,  1.1D+00,  9.9D-02, r^2= 7.1D+00
   Bfn.  Coefficient  Atom+Function         Bfn.  Coefficient  Atom+Function  
  ----- ------------  ---------------      ----- ------------  ---------------
    52      1.170836   4 C  px               87      1.036154  10 H  s         
    67     -0.996783   6 H  s                82     -0.883195   9 H  s         
    77     -0.776498   8 H  s                 9      0.704841   1 C  pz        
     7      0.656453   1 C  px               33      0.586901   3 C  s         
    48      0.579615   4 C  s               138      0.558250  14 S  pz        

 Vector   83  Occ=0.000000D+00  E= 6.765844D-01
              MO Center= -3.7D-01,  1.3D+00, -1.1D-01, r^2= 7.6D+00
[...]
          25     0.07978     0.02987    -0.01234    -0.09826    -0.36355    -0.02601
          26    -0.10507    -0.03697     0.01603     0.07426     0.30977     0.01991
          27     0.14086     0.05268    -0.02009    -0.11119    -0.39906    -0.02463
          28     0.06796     0.02581    -0.00205     0.08563     0.25741     0.02161
          29     0.21201     0.08895    -0.02104     0.27462     0.38087     0.02338
          30    -0.22021    -0.10462     0.03083    -0.24528    -0.31752    -0.03220
          31    -0.00319    -0.00023    -0.00009     0.00063    -0.00018     0.00062
          32     0.03111     0.01055     0.00017    -0.00622    -0.00174     0.00064
          33     0.01105     0.00142     0.00020    -0.00093     0.00019    -0.00063
          34     0.01144    -0.00417     0.00568    -0.00156    -0.00437    -0.00255
          35    -0.01485     0.01063    -0.01255    -0.00433     0.00383    -0.00615
          36    -0.00557     0.00857    -0.00402    -0.00224    -0.00017    -0.00078
          37    -0.10958    -0.07340     0.01939     0.06410    -0.00937     0.00907
          38    -0.02875    -0.00491    -0.00837     0.00529     0.02098    -0.00051
          39     0.01480     0.01255     0.00078    -0.00404    -0.01222    -0.00060
          40     0.00296    -0.00220     0.00396     0.00060    -0.00011    -0.00156
          41     0.00580    -0.00206     0.00946     0.00061    -0.00020     0.00105
          42    -0.00578     0.00842     0.00170     0.00005    -0.00010    -0.00200
          43    -0.00180     0.00067    -0.00075    -0.00009     0.00036    -0.00023
          44     0.00076     0.00106    -0.00321    -0.00066     0.00088    -0.00100
          45    -0.00006     0.00058    -0.00113    -0.00024     0.00039    -0.00016

                   37          38          39          40          41          42
 
 P.Frequency     1697.26     1707.31     2590.81     2659.70     3073.37     3145.46
 
           1     0.00026    -0.00632    -0.00008    -0.00009     0.01218    -0.07215
           2     0.00515    -0.01283     0.00011    -0.00037    -0.01181    -0.04850
           3     0.00097    -0.00607    -0.00006    -0.00002    -0.06705     0.01365
           4    -0.03683     0.13533    -0.00118     0.00005    -0.00038    -0.00153
           5    -0.06082     0.15013    -0.00177     0.00039     0.00075     0.00047
           6    -0.02069     0.06126    -0.00072     0.00011    -0.00010     0.00036
           7     0.00199    -0.01057     0.00009    -0.00002     0.00009     0.00016
           8    -0.13549    -0.04876    -0.00007    -0.00004     0.00011     0.00008
           9     0.12921     0.04471     0.00008     0.00002     0.00009     0.00025
          10    -0.01997    -0.00355    -0.00003     0.00004    -0.00030    -0.00086
          11     0.11760     0.04035     0.00004    -0.00005     0.00016     0.00104
          12    -0.11860    -0.04014    -0.00002     0.00006    -0.00009    -0.00109
          13     0.00366    -0.00341     0.00131    -0.61044     0.00260     0.00902
          14    -0.00322     0.00468     0.00054    -0.74726     0.00231     0.00536
          15    -0.00126     0.00013     0.00048    -0.17662     0.00212     0.00468
          16    -0.01929     0.04335    -0.00026     0.00882     0.32904     0.66679
          17     0.02318    -0.06597    -0.00008     0.00618     0.25243     0.51817
          18     0.02841    -0.03151    -0.00018     0.00441     0.06561     0.16597
          19     0.00804     0.00043    -0.00039    -0.00034    -0.46553     0.20435
          20     0.01608    -0.00591    -0.00036     0.00006    -0.12557     0.04983
          21     0.00861    -0.00202     0.00033    -0.00160     0.72556    -0.33812
          22     0.17891     0.04824     0.00096     0.00006    -0.00117    -0.00154
          23     0.09777     0.04130     0.00020     0.00012     0.00026     0.00004
          24    -0.05127    -0.01901    -0.00018    -0.00007    -0.00069    -0.00121
          25     0.17381     0.05239     0.00002     0.00003    -0.00125    -0.01025
          26    -0.02444     0.00017    -0.00000     0.00030    -0.00068    -0.00603
          27     0.06366     0.01031    -0.00011    -0.00013     0.00062     0.00418
          28    -0.17827    -0.05837     0.00010    -0.00056     0.00320     0.01848
          29    -0.09993    -0.03163     0.00020     0.00027    -0.00081    -0.00419
          30     0.05260     0.01890     0.00015    -0.00052     0.00174     0.00804
          31    -0.00354     0.00965     0.97539     0.00137    -0.00040     0.00047
          32    -0.00425     0.01001     0.03898    -0.00019     0.00002    -0.00039
          33    -0.00135     0.00486     0.09641    -0.00019     0.00016    -0.00021
          34     0.02798    -0.09574    -0.00019    -0.00041     0.00010     0.00011
          35     0.04051    -0.11612     0.00374    -0.00010     0.00031     0.00005
          36     0.01542    -0.04696     0.00137    -0.00012     0.00041    -0.00003
          37     0.00443    -0.00371     0.00029     0.00010    -0.00001     0.00016
          38     0.02067     0.00136    -0.00072     0.00006    -0.00011    -0.00019
          39    -0.01231    -0.00488    -0.00030     0.00001    -0.00010     0.00023
          40    -0.00015    -0.00000    -0.00002     0.01911    -0.00020    -0.00018
          41     0.00026    -0.00018    -0.00002     0.02336     0.00001    -0.00012
          42    -0.00012     0.00022    -0.00000     0.00550     0.00007    -0.00013
          43     0.00100    -0.00224    -0.03039    -0.00003     0.00002    -0.00000
          44    -0.00090     0.00348    -0.00187     0.00003    -0.00007     0.00006
          45    -0.00019     0.00093    -0.00323    -0.00000    -0.00005     0.00002

                   43          44          45
 
 P.Frequency     3157.67     3206.57     3263.69
 
           1    -0.00165    -0.00040     0.00021
           2    -0.00118    -0.00029     0.00013
           3    -0.00005    -0.00010     0.00009
           4    -0.00048     0.00186     0.00038
           5    -0.00001    -0.00003     0.00015
           6     0.00008    -0.00012    -0.00020
           7     0.00743    -0.07064    -0.01250
           8     0.00344     0.02252     0.00303
           9    -0.00175    -0.03792    -0.00584
          10     0.01423     0.01717    -0.09006
          11    -0.04440    -0.00611    -0.02359
          12     0.04703     0.01036    -0.00079
          13     0.00060     0.00022    -0.00024
          14     0.00077     0.00008    -0.00027
          15     0.00039     0.00008    -0.00013
          16     0.01738     0.00457    -0.00232
          17     0.01336     0.00317    -0.00208
          18     0.00467     0.00082    -0.00127
          19     0.00389     0.00026    -0.00068
          20     0.00026     0.00010     0.00034
          21    -0.00527    -0.00031     0.00005
          22    -0.10584     0.82715     0.13108
          23     0.02298    -0.19795    -0.03242
          24    -0.04766     0.38393     0.06192
          25     0.49550    -0.03538     0.56814
          26     0.32629    -0.02320     0.38680
          27    -0.18630     0.01280    -0.22625
          28    -0.65492    -0.15778     0.51556
          29     0.13322     0.03491    -0.11615
          30    -0.30201    -0.07407     0.24834
          31     0.00018    -0.00048    -0.00019
          32    -0.00016     0.00001     0.00005
          33     0.00004     0.00005    -0.00011
          34     0.00012    -0.00032    -0.00007
          35     0.00001    -0.00013    -0.00002
          36    -0.00004    -0.00004     0.00003
          37     0.00060    -0.00096     0.00025
          38     0.00033    -0.00048     0.00035
          39    -0.00015     0.00051    -0.00021
          40    -0.00001    -0.00001    -0.00001
          41    -0.00001     0.00001    -0.00000
          42    -0.00002    -0.00000     0.00002
          43    -0.00001     0.00002     0.00001
          44    -0.00000     0.00001     0.00000
          45     0.00001     0.00000    -0.00000



 ----------------------------------------------------------------------------
 Normal Eigenvalue ||    Projected Derivative Dipole Moments (debye/angs)
  Mode   [cm**-1]  ||      [d/dqX]             [d/dqY]           [d/dqZ]
 ------ ---------- || ------------------ ------------------ -----------------
    1       -0.000 ||      -0.012               0.076            -0.009
    2       -0.000 ||       0.024              -0.012            -0.069
    3       -0.000 ||       0.005              -0.009            -0.010
    4        0.000 ||       0.006               0.028            -0.035
    5        0.000 ||      -0.032              -0.010             0.106
    6        0.000 ||       0.012              -0.041            -0.012
    7       29.566 ||      -0.072               0.177            -0.069
    8       72.012 ||       0.236              -0.032             0.026
    9      126.134 ||      -0.033               0.060             0.098
   10      164.239 ||       0.118               0.276             0.011
   11      190.667 ||       0.082               0.321            -0.135
   12      233.786 ||      -0.103              -0.486            -0.198
   13      259.782 ||      -0.551              -0.101             0.015
   14      294.519 ||       0.323              -0.087            -0.613
   15      333.887 ||       0.117              -0.160             0.252
   16      359.297 ||      -0.050               0.189             0.248
   17      528.750 ||       0.003               0.167             0.370
   18      549.409 ||      -0.248               0.074            -0.037
   19      634.077 ||       0.322               0.162            -0.128
   20      680.071 ||       0.301               0.179             0.022
   21      706.899 ||      -0.290               0.210             0.010
   22      733.785 ||       0.056               0.499            -0.187
   23      809.708 ||      -0.109              -0.111            -0.178
   24      856.355 ||      -0.669              -0.208            -0.276
   25      889.278 ||       0.347              -0.571            -0.640
   26      950.984 ||       0.588               0.884            -0.179
   27      987.745 ||       0.175              -0.478            -0.556
   28      993.998 ||      -0.192               0.146             0.079
   29     1024.166 ||      -0.522              -0.409             0.290
   30     1138.877 ||      -0.821              -0.067            -0.118
   31     1186.077 ||       1.606               1.290            -0.466
   32     1209.990 ||       1.685               0.289            -0.174
   33     1285.029 ||      -0.664              -0.517             0.221
   34     1350.280 ||      -0.788              -0.451             0.203
   35     1415.367 ||      -0.085              -0.068            -0.183
   36     1436.170 ||      -0.324               0.121             0.307
   37     1697.261 ||      -0.923              -1.443             0.744
   38     1707.312 ||       0.758               0.718             0.379
   39     2590.807 ||      -0.373               0.288             0.042
   40     2659.701 ||       0.086              -0.080             0.033
   41     3073.373 ||      -0.100               0.029            -0.438
   42     3145.460 ||      -0.031              -0.127            -0.015
   43     3157.675 ||      -0.080               0.171            -0.028
   44     3206.568 ||      -0.520              -0.024            -0.101
   45     3263.691 ||      -0.121              -0.162             0.046
 ----------------------------------------------------------------------------



  
  
 ----------------------------------------------------------------------------
 Normal Eigenvalue ||           Projected Infra Red Intensities
  Mode   [cm**-1]  || [atomic units] [(debye/angs)**2] [(KM/mol)] [arbitrary]
 ------ ---------- || -------------- ----------------- ---------- -----------
    1       -0.000 ||    0.000262           0.006         0.256       0.124
    2       -0.000 ||    0.000237           0.005         0.231       0.113
    3       -0.000 ||    0.000009           0.000         0.009       0.004
    4        0.000 ||    0.000091           0.002         0.088       0.043
    5        0.000 ||    0.000533           0.012         0.520       0.253
    6        0.000 ||    0.000085           0.002         0.083       0.040
    7       29.566 ||    0.001793           0.041         1.747       0.850
    8       72.012 ||    0.002491           0.057         2.429       1.182
    9      126.134 ||    0.000619           0.014         0.604       0.294
   10      164.239 ||    0.003925           0.091         3.827       1.862
   11      190.667 ||    0.005560           0.128         5.420       2.637
   12      233.786 ||    0.012421           0.287        12.109       5.891
   13      259.782 ||    0.013596           0.314        13.254       6.449
   14      294.519 ||    0.021112           0.487        20.581      10.013
   15      333.887 ||    0.004455           0.103         4.343       2.113
   16      359.297 ||    0.004318           0.100         4.210       2.048
   17      528.750 ||    0.007134           0.165         6.955       3.384
   18      549.409 ||    0.002961           0.068         2.887       1.404
   19      634.077 ||    0.006350           0.146         6.190       3.012
   20      680.071 ||    0.005339           0.123         5.205       2.532
   21      706.899 ||    0.005569           0.128         5.429       2.641
   22      733.785 ||    0.012441           0.287        12.128       5.901
   23      809.708 ||    0.002426           0.056         2.365       1.150
   24      856.355 ||    0.024556           0.567        23.939      11.647
   25      889.278 ||    0.037106           0.856        36.173      17.599
   26      950.984 ||    0.050218           1.159        48.955      23.819
   27      987.745 ||    0.024614           0.568        23.995      11.674
   28      993.998 ||    0.002790           0.064         2.720       1.323
   29     1024.166 ||    0.022734           0.524        22.162      10.783
   30     1138.877 ||    0.030022           0.693        29.267      14.239
   31     1186.077 ||    0.193338           4.460       188.476      91.701
   32     1209.990 ||    0.127989           2.953       124.770      60.705
   33     1285.029 ||    0.032795           0.757        31.971      15.555
   34     1350.280 ||    0.037553           0.866        36.608      17.811
   35     1415.367 ||    0.001956           0.045         1.907       0.928
   36     1436.170 ||    0.009280           0.214         9.046       4.401
   37     1697.261 ||    0.151148           3.487       147.347      71.690
   38     1707.312 ||    0.053415           1.232        52.071      25.335
   39     2590.807 ||    0.009711           0.224         9.467       4.606
   40     2659.701 ||    0.000645           0.015         0.629       0.306
   41     3073.373 ||    0.008789           0.203         8.568       4.169
   42     3145.460 ||    0.000753           0.017         0.734       0.357
   43     3157.675 ||    0.001582           0.036         1.542       0.750
   44     3206.568 ||    0.012174           0.281        11.868       5.774
   45     3263.691 ||    0.001868           0.043         1.821       0.886
 ----------------------------------------------------------------------------



 vib:animation  F

 Task  times  cpu:      522.0s     wall:      522.0s


                                NWChem Input Module
                                -------------------


 Summary of allocated global arrays
-----------------------------------
  No active global arrays


MA_summarize_allocated_blocks: starting scan ...
MA_summarize_allocated_blocks: scan completed: 0 heap blocks, 0 stack blocks
MA usage statistics:

	allocation statistics:
					      heap	     stack
					      ----	     -----
	current number of blocks	         0	         0
	maximum number of blocks	        25	        54
	current total bytes		         0	         0
	maximum total bytes		 740078464	  85445928
	maximum total K-bytes		    740079	     85446
	maximum total M-bytes		       741	        86


                                     CITATION
                                     --------
                Please cite the following reference when publishing
                           results obtained with NWChem:

          E. Apra, E. J. Bylaska, W. A. de Jong, N. Govind, K. Kowalski,
       T. P. Straatsma, M. Valiev, H. J. J. van Dam, Y. Alexeev, J. Anchell,
       V. Anisimov, F. W. Aquino, R. Atta-Fynn, J. Autschbach, N. P. Bauman,
     J. C. Becca, D. E. Bernholdt, K. Bhaskaran-Nair, S. Bogatko, P. Borowski,
         J. Boschen, J. Brabec, A. Bruner, E. Cauet, Y. Chen, G. N. Chuev,
      C. J. Cramer, J. Daily, M. J. O. Deegan, T. H. Dunning Jr., M. Dupuis,
   K. G. Dyall, G. I. Fann, S. A. Fischer, A. Fonari, H. Fruchtl, L. Gagliardi,
      J. Garza, N. Gawande, S. Ghosh, K. Glaesemann, A. W. Gotz, J. Hammond,
       V. Helms, E. D. Hermes, K. Hirao, S. Hirata, M. Jacquelin, L. Jensen,
   B. G. Johnson, H. Jonsson, R. A. Kendall, M. Klemm, R. Kobayashi, V. Konkov,
      S. Krishnamoorthy, M. Krishnan, Z. Lin, R. D. Lins, R. J. Littlefield,
      A. J. Logsdail, K. Lopata, W. Ma, A. V. Marenich, J. Martin del Campo,
   D. Mejia-Rodriguez, J. E. Moore, J. M. Mullin, T. Nakajima, D. R. Nascimento,
    J. A. Nichols, P. J. Nichols, J. Nieplocha, A. Otero-de-la-Roza, B. Palmer,
    A. Panyala, T. Pirojsirikul, B. Peng, R. Peverati, J. Pittner, L. Pollack,
   R. M. Richard, P. Sadayappan, G. C. Schatz, W. A. Shelton, D. W. Silverstein,
   D. M. A. Smith, T. A. Soares, D. Song, M. Swart, H. L. Taylor, G. S. Thomas,
            V. Tipparaju, D. G. Truhlar, K. Tsemekhman, T. Van Voorhis,
      A. Vazquez-Mayagoitia, P. Verma, O. Villa, A. Vishnu, K. D. Vogiatzis,
        D. Wang, J. H. Weare, M. J. Williamson, T. L. Windus, K. Wolinski,
        A. T. Wong, Q. Wu, C. Yang, Q. Yu, M. Zacharias, Z. Zhang, Y. Zhao,
                                and R. J. Harrison
                        "NWChem: Past, present, and future
                         J. Chem. Phys. 152, 184102 (2020)
                               doi:10.1063/5.0004997

                                      AUTHORS
                                      -------
  E. Apra, E. J. Bylaska, N. Govind, K. Kowalski, M. Valiev, D. Mejia-Rodriguez,
       A. Kunitsa, N. P. Bauman, A. Panyala, W. A. de Jong, T. P. Straatsma,
   H. J. J. van Dam, D. Wang, T. L. Windus, J. Hammond, J. Autschbach, A. Woods,
    K. Bhaskaran-Nair, J. Brabec, K. Lopata, S. A. Fischer, S. Krishnamoorthy,
     M. Jacquelin, W. Ma, M. Klemm, O. Villa, Y. Chen, V. Anisimov, F. Aquino,
     S. Hirata, M. T. Hackler, E. Hermes, L. Jensen, J. E. Moore, J. C. Becca,
      V. Konjkov, T. Risthaus, M. Malagoli, A. Marenich, A. Otero-de-la-Roza,
        J. Mullin, P. Nichols, R. Peverati, J. Pittner, Y. Zhao, P.-D. Fan,
        A. Fonari, M. J. Williamson, R. J. Harrison, J. R. Rehr, M. Dupuis,
     D. Silverstein, D. M. A. Smith, J. Nieplocha, V. Tipparaju, M. Krishnan,
     B. E. Van Kuiken, A. Vazquez-Mayagoitia, M. Swart, Q. Wu, T. Van Voorhis,
     A. A. Auer, M. Nooijen, L. D. Crosby, E. Brown, G. Cisneros, G. I. Fann,
   H. Fruchtl, J. Garza, K. Hirao, R. A. Kendall, J. A. Nichols, K. Tsemekhman,
    K. Wolinski, J. Anchell, D. E. Bernholdt, P. Borowski, T. Clark, D. Clerc,
   H. Dachsel, M. J. O. Deegan, K. Dyall, D. Elwood, E. Glendening, M. Gutowski,
   A. C. Hess, J. Jaffe, B. G. Johnson, J. Ju, R. Kobayashi, R. Kutteh, Z. Lin,
   R. Littlefield, X. Long, B. Meng, T. Nakajima, S. Niu, L. Pollack, M. Rosing,
   K. Glaesemann, G. Sandrone, M. Stave, H. Taylor, G. Thomas, J. H. van Lenthe,
                               A. T. Wong, Z. Zhang.

 Total times  cpu:     1064.7s     wall:     1064.7s
