 argument  1 = xyz98.in
                                         
                                         


             Northwest Computational Chemistry Package (NWChem) 7.2.3
             --------------------------------------------------------


                    Environmental Molecular Sciences Laboratory
                       Pacific Northwest National Laboratory
                                Richland, WA 99352

                              Copyright (c) 1994-2022
                       Pacific Northwest National Laboratory
                            Battelle Memorial Institute

             NWChem is an open-source computational chemistry package
                        distributed under the terms of the
                      Educational Community License (ECL) 2.0
             A copy of the license is included with this distribution
                              in the LICENSE.TXT file

                                  ACKNOWLEDGMENT
                                  --------------

            This software and its documentation were developed at the
            EMSL at Pacific Northwest National Laboratory, a multiprogram
            national laboratory, operated for the U.S. Department of Energy
            by Battelle under Contract Number DE-AC05-76RL01830. Support
            for this work was provided by the Department of Energy Office
            of Biological and Environmental Research, Office of Basic
            Energy Sciences, and the Office of Advanced Scientific Computing.


           Job information
           ---------------

    hostname        = gpu001
    program         = /home/rrichard/nwchem/bin/LINUX64/nwchem
    date            = Tue Jul 15 06:58:43 2025

    compiled        = Mon_Jul_07_13:04:19_2025
    source          = /home/rrichard/nwchem
    nwchem branch   = 7.2.3
    nwchem revision = v7.2.0-beta1-1473-g5687662257
    ga revision     = 5.9.2
    use scalapack   = T
    input           = xyz98.in
    prefix          = xyz98.
    data base       = ./xyz98.db
    status          = startup
    nproc           =        2
    time left       =     -1s



           Memory information
           ------------------

    heap     =    431126725 doubles =     3289.2 Mbytes
    stack    =    431126721 doubles =     3289.2 Mbytes
    global   =    246358129 doubles =     1879.6 Mbytes (distinct from heap & stack)
    total    =   1108611575 doubles =     8458.0 Mbytes
    verify   = yes
    hardfail = no 


           Directory information
           ---------------------

  0 permanent = .
  0 scratch   = .




                                NWChem Input Module
                                -------------------



 Scaling coordinates for geometry "geometry" by  1.889725989
 (inverse scale =  0.529177249)

 C1  symmetry detected

          ------
          auto-z
          ------
  no constraints, skipping    0.0000000000000000     
  no constraints, skipping    0.0000000000000000     


                             Geometry "geometry" -> ""
                             -------------------------

 Output coordinates in angstroms (scale by  1.889725989 to convert to a.u.)

  No.       Tag          Charge          X              Y              Z
 ---- ---------------- ---------- -------------- -------------- --------------
    1 C                    6.0000     0.08291708     0.50933806     0.01152829
    2 C                    6.0000    -0.46698301    -0.74222760     0.00042042
    3 F                    9.0000    -1.79372784    -0.80651997     0.06873879
    4 Cl                  17.0000     1.72825430     0.91014121     0.02496781
    5 Cl                  17.0000    -0.97377568     1.80895050    -0.03469429
    6 Cl                  17.0000     0.33069467    -2.20991425    -0.03088183

      Atomic Mass 
      ----------- 

      C                 12.000000
      F                 18.998400
      Cl                34.968850


 Effective nuclear repulsion energy (a.u.)     421.0047074031

            Nuclear Dipole moment (a.u.) 
            ----------------------------
        X                 Y               Z
 ---------------- ---------------- ----------------
     0.0000000000     0.0000000000     0.0000000000



                                Z-matrix (autoz)
                                -------- 

 Units are Angstrom for bonds and degrees for angles

      Type          Name      I     J     K     L     M      Value
      ----------- --------  ----- ----- ----- ----- ----- ----------
    1 Stretch                  1     2                       1.36709
    2 Stretch                  1     4                       1.69350
    3 Stretch                  1     5                       1.67563
    4 Stretch                  2     3                       1.33006
    5 Stretch                  2     6                       1.67074
    6 Bend                     1     2     3               116.42820
    7 Bend                     1     2     6               127.75877
    8 Bend                     2     1     4               127.41163
    9 Bend                     2     1     5               117.14020
   10 Bend                     3     2     6               115.76936
   11 Bend                     4     1     5               115.42607
   12 Torsion                  3     2     1     4         176.26345
   13 Torsion                  3     2     1     5          -5.53537
   14 Torsion                  4     1     2     6          -1.21369
   15 Torsion                  5     1     2     6         176.98750


            XYZ format geometry
            -------------------
     6
 geometry
 C                     0.08291708     0.50933806     0.01152829
 C                    -0.46698301    -0.74222760     0.00042042
 F                    -1.79372784    -0.80651997     0.06873879
 Cl                    1.72825430     0.91014121     0.02496781
 Cl                   -0.97377568     1.80895050    -0.03469429
 Cl                    0.33069467    -2.20991425    -0.03088183

 ==============================================================================
                                internuclear distances
 ------------------------------------------------------------------------------
       center one      |      center two      | atomic units |  angstroms
 ------------------------------------------------------------------------------
    2 C                |   1 C                |     2.58342  |     1.36709
    3 F                |   2 C                |     2.51344  |     1.33006
    4 Cl               |   1 C                |     3.20026  |     1.69350
    5 Cl               |   1 C                |     3.16648  |     1.67563
    6 Cl               |   2 C                |     3.15724  |     1.67074
 ------------------------------------------------------------------------------
                         number of included internuclear distances:          5
 ==============================================================================



 ==============================================================================
                                 internuclear angles
 ------------------------------------------------------------------------------
        center 1       |       center 2       |       center 3       |  degrees
 ------------------------------------------------------------------------------
    2 C                |   1 C                |   4 Cl               |   127.41
    2 C                |   1 C                |   5 Cl               |   117.14
    4 Cl               |   1 C                |   5 Cl               |   115.43
    1 C                |   2 C                |   3 F                |   116.43
    1 C                |   2 C                |   6 Cl               |   127.76
    3 F                |   2 C                |   6 Cl               |   115.77
 ------------------------------------------------------------------------------
                            number of included internuclear angles:          6
 ==============================================================================





 Summary of "ao basis" -> "" (cartesian)
 ------------------------------------------------------------------------------
       Tag                 Description            Shells   Functions and Types
 ---------------- ------------------------------  ------  ---------------------
 *                          cc-pvdz                   on all atoms 




                           NWChem Geometry Optimization
                           ----------------------------


  no constraints, skipping    0.0000000000000000     
 maximum gradient threshold         (gmax) =   0.000450
 rms gradient threshold             (grms) =   0.000300
 maximum cartesian step threshold   (xmax) =   0.001800
 rms cartesian step threshold       (xrms) =   0.001200
 fixed trust radius                (trust) =   0.300000
 maximum step size to saddle      (sadstp) =   0.100000
 energy precision                  (eprec) =   5.0D-06
 maximum number of steps          (nptopt) =   40
 initial hessian option           (inhess) =    0
 line search option               (linopt) =    1
 hessian update option            (modupd) =    1
 saddle point option              (modsad) =    0
 initial eigen-mode to follow     (moddir) =    0
 initial variable to follow       (vardir) =    0
 follow first negative mode     (firstneg) =    T
 apply conjugacy                    (opcg) =    F
 source of zmatrix                         =   autoz   


          -------------------
          Energy Minimization
          -------------------


 Names of Z-matrix variables 
    1              2              3              4              5         
    6              7              8              9             10         
   11             12             13             14             15         

 Variables with the same non-blank name are constrained to be equal


 Using diagonal initial Hessian 
 Scaling for Hessian diagonals: bonds = 1.00  angles = 0.25  torsions = 0.10

          --------
          Step   0
          --------


                         Geometry "geometry" -> "geometry"
                         ---------------------------------

 Output coordinates in angstroms (scale by  1.889725989 to convert to a.u.)

  No.       Tag          Charge          X              Y              Z
 ---- ---------------- ---------- -------------- -------------- --------------
    1 C                    6.0000     0.08291708     0.50933806     0.01152829
    2 C                    6.0000    -0.46698301    -0.74222760     0.00042042
    3 F                    9.0000    -1.79372784    -0.80651997     0.06873879
    4 Cl                  17.0000     1.72825430     0.91014121     0.02496781
    5 Cl                  17.0000    -0.97377568     1.80895050    -0.03469429
    6 Cl                  17.0000     0.33069467    -2.20991425    -0.03088183

      Atomic Mass 
      ----------- 

      C                 12.000000
      F                 18.998400
      Cl                34.968850


 Effective nuclear repulsion energy (a.u.)     421.0047074031

            Nuclear Dipole moment (a.u.) 
            ----------------------------
        X                 Y               Z
 ---------------- ---------------- ----------------
     0.0000000000     0.0000000000     0.0000000000


                                 NWChem DFT Module
                                 -----------------


                      Basis "ao basis" -> "ao basis" (cartesian)
                      -----
  C (Carbon)
  ----------
            Exponent  Coefficients 
       -------------- ---------------------------------------------------------
  1 S  6.66500000E+03  0.000692
  1 S  1.00000000E+03  0.005329
  1 S  2.28000000E+02  0.027077
  1 S  6.47100000E+01  0.101718
  1 S  2.10600000E+01  0.274740
  1 S  7.49500000E+00  0.448564
  1 S  2.79700000E+00  0.285074
  1 S  5.21500000E-01  0.015204

  2 S  6.66500000E+03 -0.000146
  2 S  1.00000000E+03 -0.001154
  2 S  2.28000000E+02 -0.005725
  2 S  6.47100000E+01 -0.023312
  2 S  2.10600000E+01 -0.063955
  2 S  7.49500000E+00 -0.149981
  2 S  2.79700000E+00 -0.127262
  2 S  5.21500000E-01  0.544529

  3 S  1.59600000E-01  1.000000

  4 P  9.43900000E+00  0.038109
  4 P  2.00200000E+00  0.209480
  4 P  5.45600000E-01  0.508557

  5 P  1.51700000E-01  1.000000

  6 D  5.50000000E-01  1.000000

  F (Fluorine)
  ------------
            Exponent  Coefficients 
       -------------- ---------------------------------------------------------
  1 S  1.47100000E+04  0.000721
  1 S  2.20700000E+03  0.005553
  1 S  5.02800000E+02  0.028267
  1 S  1.42600000E+02  0.106444
  1 S  4.64700000E+01  0.286814
  1 S  1.67000000E+01  0.448641
  1 S  6.35600000E+00  0.264761
  1 S  1.31600000E+00  0.015333

  2 S  1.47100000E+04 -0.000165
  2 S  2.20700000E+03 -0.001308
  2 S  5.02800000E+02 -0.006495
  2 S  1.42600000E+02 -0.026691
  2 S  4.64700000E+01 -0.073690
  2 S  1.67000000E+01 -0.170776
  2 S  6.35600000E+00 -0.112327
  2 S  1.31600000E+00  0.562814

  3 S  3.89700000E-01  1.000000

  4 P  2.26700000E+01  0.044878
  4 P  4.97700000E+00  0.235718
  4 P  1.34700000E+00  0.508521

  5 P  3.47100000E-01  1.000000

  6 D  1.64000000E+00  1.000000

  Cl (Chlorine)
  -------------
            Exponent  Coefficients 
       -------------- ---------------------------------------------------------
  1 S  1.27900000E+05  0.000241
  1 S  1.91700000E+04  0.001871
  1 S  4.36300000E+03  0.009708
  1 S  1.23600000E+03  0.039315
  1 S  4.03600000E+02  0.125932
  1 S  1.45700000E+02  0.299341
  1 S  5.68100000E+01  0.421886
  1 S  2.32300000E+01  0.237201
  1 S  6.64400000E+00  0.019153
  1 S  2.57500000E+00 -0.003348
  1 S  5.37100000E-01  0.000930

  2 S  1.27900000E+05 -0.000068
  2 S  1.91700000E+04 -0.000522
  2 S  4.36300000E+03 -0.002765
  2 S  1.23600000E+03 -0.011154
  2 S  4.03600000E+02 -0.038592
  2 S  1.45700000E+02 -0.099485
  2 S  5.68100000E+01 -0.201392
  2 S  2.32300000E+01 -0.130313
  2 S  6.64400000E+00  0.509443
  2 S  2.57500000E+00  0.610725
  2 S  5.37100000E-01  0.042155

  3 S  1.27900000E+05  0.000020
  3 S  1.91700000E+04  0.000158
  3 S  4.36300000E+03  0.000834
  3 S  1.23600000E+03  0.003399
  3 S  4.03600000E+02  0.011674
  3 S  1.45700000E+02  0.030962
  3 S  5.68100000E+01  0.062953
  3 S  2.32300000E+01  0.046026
  3 S  6.64400000E+00 -0.219312
  3 S  2.57500000E+00 -0.408773
  3 S  5.37100000E-01  0.638465

  4 S  1.93800000E-01  1.000000

  5 P  4.17600000E+02  0.005260
  5 P  9.83300000E+01  0.039833
  5 P  3.10400000E+01  0.164655
  5 P  1.11900000E+01  0.387322
  5 P  4.24900000E+00  0.457072
  5 P  1.62400000E+00  0.151636
  5 P  5.32200000E-01  0.001816

  6 P  4.17600000E+02 -0.001436
  6 P  9.83300000E+01 -0.010780
  6 P  3.10400000E+01 -0.047008
  6 P  1.11900000E+01 -0.111030
  6 P  4.24900000E+00 -0.153275
  6 P  1.62400000E+00  0.089461
  6 P  5.32200000E-01  0.579444

  7 P  1.62000000E-01  1.000000

  8 D  6.00000000E-01  1.000000



 Summary of "ao basis" -> "ao basis" (cartesian)
 ------------------------------------------------------------------------------
       Tag                 Description            Shells   Functions and Types
 ---------------- ------------------------------  ------  ---------------------
 C                          cc-pvdz                  6       15   3s2p1d
 F                          cc-pvdz                  6       15   3s2p1d
 Cl                         cc-pvdz                  8       19   4s3p1d




 Summary of "ao basis" -> "ao basis" (cartesian)
 ------------------------------------------------------------------------------
       Tag                 Description            Shells   Functions and Types
 ---------------- ------------------------------  ------  ---------------------
 C                          cc-pvdz                  6       15   3s2p1d
 F                          cc-pvdz                  6       15   3s2p1d
 Cl                         cc-pvdz                  8       19   4s3p1d


  Caching 1-el integrals 

            General Information
            -------------------
          SCF calculation type: DFT
          Wavefunction type:  closed shell.
          No. of atoms     :     6
          No. of electrons :    72
           Alpha electrons :    36
            Beta electrons :    36
          Charge           :     0
          Spin multiplicity:     1
          Use of symmetry is: off; symmetry adaption is: off
          Maximum number of iterations:  50
          AO basis - number of functions:   102
                     number of shells:    42
          Convergence on energy requested:  1.00D-06
          Convergence on density requested:  1.00D-05
          Convergence on gradient requested:  5.00D-04

              XC Information
              --------------
                         B3LYP Method XC Potential
                     Hartree-Fock (Exact) Exchange  0.200          
                        Slater Exchange Functional  0.800 local    
                    Becke 1988 Exchange Functional  0.720 non-local
              Lee-Yang-Parr Correlation Functional  0.810          
                  VWN I RPA Correlation Functional  0.190 local    

             Grid Information
             ----------------
          Grid used for XC integration:  medium    
          Radial quadrature: Mura-Knowles        
          Angular quadrature: Lebedev. 
          Tag              B.-S. Rad. Rad. Pts. Rad. Cut. Ang. Pts.
          ---              ---------- --------- --------- ---------
          C                   0.70       49           8.0       434
          F                   0.50       49          10.0       434
          Cl                  1.00       88          11.0       590
          Grid pruning is: on 
          Number of quadrature shells:   411
          Spatial weights used:  Erf1

          Convergence Information
          -----------------------
          Convergence aids based upon iterative change in 
          total energy or number of iterations. 
          Levelshifting, if invoked, occurs when the 
          HOMO/LUMO gap drops below (HL_TOL):  1.00D-02
          DIIS, if invoked, will attempt to extrapolate 
          using up to (NFOCK): 10 stored Fock matrices.

                    Damping( 0%)  Levelshifting(0.5)       DIIS
                  --------------- ------------------- ---------------
          dE  on:    start            ASAP                start   
          dE off:    2 iters         50 iters            50 iters 


      Screening Tolerance Information
      -------------------------------
          Density screening/tol_rho:  1.00D-10
          AO Gaussian exp screening on grid/accAOfunc:  14
          CD Gaussian exp screening on grid/accCDfunc:  20
          XC Gaussian exp screening on grid/accXCfunc:  20
          Schwarz screening/accCoul:  1.00D-08


      Superposition of Atomic Density Guess
      -------------------------------------

 Sum of atomic energies:       -1553.14129783

      Non-variational initial energy
      ------------------------------

 Total energy =   -1555.256675
 1-e energy   =   -2985.387376
 2-e energy   =    1009.125994
 HOMO         =      -0.188475
 LUMO         =       0.078985

   Time after variat. SCF:      1.0
   Time prior to 1st pass:      1.0
 Shared filesystem for scratch_dir 

 Integral file          = ./xyz98.aoints.0
 Record size in doubles =    65536    No. of integs per rec  =    43688
 Max. records in memory =      217    Max. records in file   = 22915095
 No. of bits per label  =        8    No. of bits per value  =       64


 #quartets = 3.433D+05 #integrals = 1.046D+07 #direct =  0.0% #cached =100.0%


File balance: exchanges=     0  moved=     0  time=   0.0

 Shared filesystem for scratch_dir 

 Grid_pts file          = ./xyz98.gridpts.0
 Record size in doubles =  12289        No. of grid_pts per rec  =   3070
 Max. records in memory =     45        Max. recs in file   = 122203900


           Memory utilization after 1st SCF pass: 
           Heap Space remaining (MW):      416.33           416333157
          Stack Space remaining (MW):      431.13           431126020

   convergence    iter        energy       DeltaE   RMS-Dens  Diis-err    time
 ---------------- ----- ----------------- --------- --------- ---------  ------
 d= 0,ls=0.0,diis     1  -1556.5130381144 -1.98D+03  1.96D-02  1.60D+00     3.0
 d= 0,ls=0.0,diis     2  -1556.2913184569  2.22D-01  1.39D-02  3.37D+00     3.3
 d= 0,ls=0.0,diis     3  -1556.6569404180 -3.66D-01  2.28D-03  8.90D-02     3.5
 d= 0,ls=0.0,diis     4  -1556.6658224028 -8.88D-03  8.36D-04  8.43D-03     3.8
 d= 0,ls=0.0,diis     5  -1556.6664112336 -5.89D-04  3.62D-04  1.70D-03     4.1
  Resetting Diis
 d= 0,ls=0.0,diis     6  -1556.6666187844 -2.08D-04  8.72D-05  9.05D-05     4.4
 d= 0,ls=0.0,diis     7  -1556.6666286949 -9.91D-06  6.37D-05  1.65D-05     4.6
 d= 0,ls=0.0,diis     8  -1556.6666257282  2.97D-06  4.02D-05  4.50D-05     4.9
 d= 0,ls=0.0,diis     9  -1556.6666302616 -4.53D-06  6.39D-06  6.04D-07     5.2
 d= 0,ls=0.0,diis    10  -1556.6666303337 -7.21D-08  1.07D-06  1.93D-08     5.5


         Total DFT energy =    -1556.666630333734
      One electron energy =    -2985.865314258936
           Coulomb energy =     1114.295546013383
    Exchange-Corr. energy =     -106.101569491264
 Nuclear repulsion energy =      421.004707403084

 Numeric. integr. density =       72.000002296169

     Total iterative time =      4.5s



                       DFT Final Molecular Orbital Analysis
                       ------------------------------------

 Vector    1  Occ=2.000000D+00  E=-1.015993D+02
              MO Center=  3.3D-01, -2.2D+00, -3.1D-02, r^2= 3.1D-03
   Bfn.  Coefficient  Atom+Function         Bfn.  Coefficient  Atom+Function  
  ----- ------------  ---------------      ----- ------------  ---------------
    84      1.000025  6 Cl s          

 Vector    2  Occ=2.000000D+00  E=-1.015893D+02
              MO Center=  1.7D+00,  9.1D-01,  2.5D-02, r^2= 3.1D-03
   Bfn.  Coefficient  Atom+Function         Bfn.  Coefficient  Atom+Function  
  ----- ------------  ---------------      ----- ------------  ---------------
    46      1.000023  4 Cl s          

 Vector    3  Occ=2.000000D+00  E=-1.015808D+02
              MO Center= -9.7D-01,  1.8D+00, -3.5D-02, r^2= 3.1D-03
   Bfn.  Coefficient  Atom+Function         Bfn.  Coefficient  Atom+Function  
  ----- ------------  ---------------      ----- ------------  ---------------
    65      1.000018  5 Cl s          

 Vector    4  Occ=2.000000D+00  E=-2.475073D+01
              MO Center= -1.8D+00, -8.1D-01,  6.9D-02, r^2= 1.2D-02
   Bfn.  Coefficient  Atom+Function         Bfn.  Coefficient  Atom+Function  
  ----- ------------  ---------------      ----- ------------  ---------------
    31      1.003659  3 F  s          

 Vector    5  Occ=2.000000D+00  E=-1.035196D+01
              MO Center= -4.7D-01, -7.4D-01,  4.3D-04, r^2= 2.8D-02
   Bfn.  Coefficient  Atom+Function         Bfn.  Coefficient  Atom+Function  
  ----- ------------  ---------------      ----- ------------  ---------------
    16      1.003663  2 C  s          

 Vector    6  Occ=2.000000D+00  E=-1.031726D+01
              MO Center=  8.3D-02,  5.1D-01,  1.2D-02, r^2= 2.8D-02
   Bfn.  Coefficient  Atom+Function         Bfn.  Coefficient  Atom+Function  
  ----- ------------  ---------------      ----- ------------  ---------------
     1      1.003710  1 C  s          

 Vector    7  Occ=2.000000D+00  E=-9.510931D+00
              MO Center=  3.3D-01, -2.2D+00, -3.1D-02, r^2= 6.6D-02
   Bfn.  Coefficient  Atom+Function         Bfn.  Coefficient  Atom+Function  
  ----- ------------  ---------------      ----- ------------  ---------------
    85      1.013157  6 Cl s                 86      0.028394  6 Cl s          

 Vector    8  Occ=2.000000D+00  E=-9.500374D+00
              MO Center=  1.7D+00,  9.1D-01,  2.5D-02, r^2= 6.6D-02
   Bfn.  Coefficient  Atom+Function         Bfn.  Coefficient  Atom+Function  
  ----- ------------  ---------------      ----- ------------  ---------------
    47      1.013170  4 Cl s                 48      0.028372  4 Cl s          

 Vector    9  Occ=2.000000D+00  E=-9.492839D+00
              MO Center= -9.7D-01,  1.8D+00, -3.5D-02, r^2= 6.6D-02
   Bfn.  Coefficient  Atom+Function         Bfn.  Coefficient  Atom+Function  
  ----- ------------  ---------------      ----- ------------  ---------------
    66      1.013310  5 Cl s                 67      0.028545  5 Cl s          

 Vector   10  Occ=2.000000D+00  E=-7.274135D+00
              MO Center=  3.3D-01, -2.2D+00, -3.1D-02, r^2= 5.8D-02
   Bfn.  Coefficient  Atom+Function         Bfn.  Coefficient  Atom+Function  
  ----- ------------  ---------------      ----- ------------  ---------------
    89      0.885050  6 Cl py                88     -0.466699  6 Cl px         

 Vector   11  Occ=2.000000D+00  E=-7.263974D+00
              MO Center=  3.3D-01, -2.2D+00, -3.1D-02, r^2= 5.8D-02
   Bfn.  Coefficient  Atom+Function         Bfn.  Coefficient  Atom+Function  
  ----- ------------  ---------------      ----- ------------  ---------------
    90      0.989573  6 Cl pz                88      0.138940  6 Cl px         
    89      0.050655  6 Cl py         

 Vector   12  Occ=2.000000D+00  E=-7.263828D+00
              MO Center=  1.7D+00,  9.1D-01,  2.5D-02, r^2= 5.8D-02
   Bfn.  Coefficient  Atom+Function         Bfn.  Coefficient  Atom+Function  
  ----- ------------  ---------------      ----- ------------  ---------------
    50      0.966717  4 Cl px                51      0.258437  4 Cl py         

 Vector   13  Occ=2.000000D+00  E=-7.263648D+00
              MO Center=  3.3D-01, -2.2D+00, -3.1D-02, r^2= 5.8D-02
   Bfn.  Coefficient  Atom+Function         Bfn.  Coefficient  Atom+Function  
  ----- ------------  ---------------      ----- ------------  ---------------
    88      0.874129  6 Cl px                89      0.464295  6 Cl py         
    90     -0.146496  6 Cl pz         

 Vector   14  Occ=2.000000D+00  E=-7.256155D+00
              MO Center= -9.7D-01,  1.8D+00, -3.5D-02, r^2= 5.8D-02
   Bfn.  Coefficient  Atom+Function         Bfn.  Coefficient  Atom+Function  
  ----- ------------  ---------------      ----- ------------  ---------------
    70      0.780520  5 Cl py                69     -0.625396  5 Cl px         
    71     -0.034866  5 Cl pz         

 Vector   15  Occ=2.000000D+00  E=-7.253345D+00
              MO Center=  1.7D+00,  9.1D-01,  2.5D-02, r^2= 5.8D-02
   Bfn.  Coefficient  Atom+Function         Bfn.  Coefficient  Atom+Function  
  ----- ------------  ---------------      ----- ------------  ---------------
    52      0.991590  4 Cl pz                51      0.125302  4 Cl py         
    50     -0.046543  4 Cl px         

 Vector   16  Occ=2.000000D+00  E=-7.253046D+00
              MO Center=  1.7D+00,  9.1D-01,  2.5D-02, r^2= 5.8D-02
   Bfn.  Coefficient  Atom+Function         Bfn.  Coefficient  Atom+Function  
  ----- ------------  ---------------      ----- ------------  ---------------
    51      0.958470  4 Cl py                50     -0.254485  4 Cl px         
    52     -0.133059  4 Cl pz         

 Vector   17  Occ=2.000000D+00  E=-7.245830D+00
              MO Center= -9.7D-01,  1.8D+00, -3.5D-02, r^2= 5.8D-02
   Bfn.  Coefficient  Atom+Function         Bfn.  Coefficient  Atom+Function  
  ----- ------------  ---------------      ----- ------------  ---------------
    71      0.997561  5 Cl pz                69     -0.075757  5 Cl px         

 Vector   18  Occ=2.000000D+00  E=-7.245386D+00
              MO Center= -9.7D-01,  1.8D+00, -3.5D-02, r^2= 5.8D-02
   Bfn.  Coefficient  Atom+Function         Bfn.  Coefficient  Atom+Function  
  ----- ------------  ---------------      ----- ------------  ---------------
    69      0.777450  5 Cl px                70      0.626055  5 Cl py         
    71      0.069167  5 Cl pz         

 Vector   19  Occ=2.000000D+00  E=-1.272477D+00
              MO Center= -1.6D+00, -8.0D-01,  5.8D-02, r^2= 4.3D-01
   Bfn.  Coefficient  Atom+Function         Bfn.  Coefficient  Atom+Function  
  ----- ------------  ---------------      ----- ------------  ---------------
    33      0.484616  3 F  s                 32      0.462523  3 F  s          
    17      0.131876  2 C  s                 19     -0.117982  2 C  px         
    34      0.104705  3 F  px                18      0.041568  2 C  s          
    37      0.035652  3 F  px                25      0.031498  2 C  dxx        

 Vector   20  Occ=2.000000D+00  E=-9.547524D-01
              MO Center=  1.9D-01,  5.6D-01, -1.3D-03, r^2= 2.4D+00
   Bfn.  Coefficient  Atom+Function         Bfn.  Coefficient  Atom+Function  
  ----- ------------  ---------------      ----- ------------  ---------------
    48      0.263519  4 Cl s                  2      0.259072  1 C  s          
    67      0.258583  5 Cl s                 49      0.207694  4 Cl s          
    68      0.190955  5 Cl s                  3      0.154201  1 C  s          
    86      0.153934  6 Cl s                 17      0.137799  2 C  s          
    87      0.113554  6 Cl s                 53     -0.085118  4 Cl px         

 Vector   21  Occ=2.000000D+00  E=-9.127195D-01
              MO Center=  5.4D-02, -1.3D+00, -1.9D-02, r^2= 2.6D+00
   Bfn.  Coefficient  Atom+Function         Bfn.  Coefficient  Atom+Function  
  ----- ------------  ---------------      ----- ------------  ---------------
    86      0.440382  6 Cl s                 87      0.376298  6 Cl s          
    67     -0.171288  5 Cl s                 17      0.152058  2 C  s          
    68     -0.147777  5 Cl s                 20     -0.126940  2 C  py         
    18      0.111645  2 C  s                 48     -0.101842  4 Cl s          
    92      0.092105  6 Cl py                49     -0.090504  4 Cl s          

 Vector   22  Occ=2.000000D+00  E=-8.604271D-01
              MO Center=  4.5D-01,  1.1D+00,  1.0D-03, r^2= 2.5D+00
   Bfn.  Coefficient  Atom+Function         Bfn.  Coefficient  Atom+Function  
  ----- ------------  ---------------      ----- ------------  ---------------
    48      0.399336  4 Cl s                 49      0.362170  4 Cl s          
    67     -0.351041  5 Cl s                 68     -0.310284  5 Cl s          
     4      0.173318  1 C  px                53     -0.054955  4 Cl px         
    73      0.052956  5 Cl py                86     -0.046488  6 Cl s          
    87     -0.043236  6 Cl s                 33      0.040287  3 F  s          

 Vector   23  Occ=2.000000D+00  E=-7.428529D-01
              MO Center= -2.8D-01, -1.4D-01,  4.1D-03, r^2= 2.8D+00
   Bfn.  Coefficient  Atom+Function         Bfn.  Coefficient  Atom+Function  
  ----- ------------  ---------------      ----- ------------  ---------------
    17      0.275130  2 C  s                 87     -0.258172  6 Cl s          
    68     -0.255730  5 Cl s                  5     -0.209490  1 C  py         
     2      0.207074  1 C  s                 67     -0.205976  5 Cl s          
    86     -0.202516  6 Cl s                 20      0.195682  2 C  py         
    18      0.166092  2 C  s                 49     -0.153711  4 Cl s          

 Vector   24  Occ=2.000000D+00  E=-6.127622D-01
              MO Center= -9.0D-01, -5.2D-01,  3.6D-02, r^2= 3.2D+00
   Bfn.  Coefficient  Atom+Function         Bfn.  Coefficient  Atom+Function  
  ----- ------------  ---------------      ----- ------------  ---------------
    34      0.426802  3 F  px                37      0.241333  3 F  px         
    19     -0.230035  2 C  px                33     -0.207913  3 F  s          
    49      0.204524  4 Cl s                  3     -0.189664  1 C  s          
    87     -0.184143  6 Cl s                  2     -0.180355  1 C  s          
    20     -0.168828  2 C  py                17      0.154751  2 C  s          

 Vector   25  Occ=2.000000D+00  E=-5.471141D-01
              MO Center= -3.9D-01, -1.1D+00,  1.8D-03, r^2= 3.5D+00
   Bfn.  Coefficient  Atom+Function         Bfn.  Coefficient  Atom+Function  
  ----- ------------  ---------------      ----- ------------  ---------------
    92     -0.301164  6 Cl py                87      0.282276  6 Cl s          
    35      0.253860  3 F  py                19     -0.238107  2 C  px         
    34      0.215832  3 F  px                20      0.199869  2 C  py         
    86      0.173405  6 Cl s                 38      0.155348  3 F  py         
    68     -0.153425  5 Cl s                 95     -0.146856  6 Cl py         

 Vector   26  Occ=2.000000D+00  E=-5.406231D-01
              MO Center=  2.3D-02,  6.7D-01,  1.0D-02, r^2= 3.6D+00
   Bfn.  Coefficient  Atom+Function         Bfn.  Coefficient  Atom+Function  
  ----- ------------  ---------------      ----- ------------  ---------------
     5      0.284788  1 C  py                53     -0.279274  4 Cl px         
    68     -0.254488  5 Cl s                 49     -0.239555  4 Cl s          
    72      0.226805  5 Cl px                 3      0.207510  1 C  s          
    35     -0.200433  3 F  py                20     -0.154648  2 C  py         
    34      0.148813  3 F  px                 2      0.141475  1 C  s          

 Vector   27  Occ=2.000000D+00  E=-5.115746D-01
              MO Center= -1.2D+00, -7.1D-01,  4.0D-02, r^2= 1.5D+00
   Bfn.  Coefficient  Atom+Function         Bfn.  Coefficient  Atom+Function  
  ----- ------------  ---------------      ----- ------------  ---------------
    36      0.519336  3 F  pz                39      0.326756  3 F  pz         
    21      0.281716  2 C  pz                24      0.154086  2 C  pz         
     6      0.147790  1 C  pz                93      0.129307  6 Cl pz         
    74      0.071227  5 Cl pz                96      0.067237  6 Cl pz         
    55      0.058635  4 Cl pz                 9      0.053694  1 C  pz         

 Vector   28  Occ=2.000000D+00  E=-4.684444D-01
              MO Center=  1.5D-01,  7.9D-01,  3.9D-04, r^2= 4.0D+00
   Bfn.  Coefficient  Atom+Function         Bfn.  Coefficient  Atom+Function  
  ----- ------------  ---------------      ----- ------------  ---------------
     4      0.312499  1 C  px                53     -0.297544  4 Cl px         
    73      0.298214  5 Cl py                68      0.197698  5 Cl s          
    72     -0.178200  5 Cl px                54     -0.166652  4 Cl py         
    56     -0.166860  4 Cl px                49     -0.164622  4 Cl s          
    76      0.158015  5 Cl py                34      0.156978  3 F  px         

 Vector   29  Occ=2.000000D+00  E=-4.298428D-01
              MO Center= -1.0D+00, -8.8D-01,  3.4D-02, r^2= 2.6D+00
   Bfn.  Coefficient  Atom+Function         Bfn.  Coefficient  Atom+Function  
  ----- ------------  ---------------      ----- ------------  ---------------
    35      0.553541  3 F  py                38      0.359161  3 F  py         
    92      0.268601  6 Cl py                 3     -0.267009  1 C  s          
    20     -0.188002  2 C  py                95      0.174789  6 Cl py         
     5      0.164428  1 C  py                18      0.157537  2 C  s          
     8      0.155504  1 C  py                23      0.123824  2 C  py         

 Vector   30  Occ=2.000000D+00  E=-4.212337D-01
              MO Center= -4.8D-02,  5.6D-01,  2.0D-02, r^2= 3.4D+00
   Bfn.  Coefficient  Atom+Function         Bfn.  Coefficient  Atom+Function  
  ----- ------------  ---------------      ----- ------------  ---------------
    55      0.316455  4 Cl pz                36     -0.304460  3 F  pz         
     6      0.298295  1 C  pz                74      0.284734  5 Cl pz         
    58      0.206353  4 Cl pz                39     -0.204684  3 F  pz         
     9      0.186712  1 C  pz                77      0.174399  5 Cl pz         
    93      0.093054  6 Cl pz                21      0.081355  2 C  pz         

 Vector   31  Occ=2.000000D+00  E=-3.784588D-01
              MO Center=  6.4D-02, -1.5D+00, -2.1D-02, r^2= 3.0D+00
   Bfn.  Coefficient  Atom+Function         Bfn.  Coefficient  Atom+Function  
  ----- ------------  ---------------      ----- ------------  ---------------
    93      0.542589  6 Cl pz                96      0.393353  6 Cl pz         
    36     -0.196848  3 F  pz                74     -0.174241  5 Cl pz         
    39     -0.141349  3 F  pz                77     -0.131420  5 Cl pz         
    21      0.130559  2 C  pz                55     -0.115277  4 Cl pz         
    58     -0.075985  4 Cl pz                24      0.069948  2 C  pz         

 Vector   32  Occ=2.000000D+00  E=-3.636034D-01
              MO Center=  6.6D-02, -1.3D+00, -2.6D-02, r^2= 4.0D+00
   Bfn.  Coefficient  Atom+Function         Bfn.  Coefficient  Atom+Function  
  ----- ------------  ---------------      ----- ------------  ---------------
    91      0.501028  6 Cl px                94      0.361962  6 Cl px         
    72      0.224099  5 Cl px                92      0.224373  6 Cl py         
    75      0.166183  5 Cl px                95      0.162764  6 Cl py         
    73      0.133793  5 Cl py                54      0.107539  4 Cl py         
    76      0.102427  5 Cl py                 3     -0.093669  1 C  s          

 Vector   33  Occ=2.000000D+00  E=-3.595653D-01
              MO Center=  6.8D-01,  7.2D-01,  9.0D-04, r^2= 3.9D+00
   Bfn.  Coefficient  Atom+Function         Bfn.  Coefficient  Atom+Function  
  ----- ------------  ---------------      ----- ------------  ---------------
    54      0.450015  4 Cl py                57      0.342286  4 Cl py         
    73      0.304949  5 Cl py                76      0.221050  5 Cl py         
    18      0.171232  2 C  s                 91     -0.152299  6 Cl px         
    92     -0.149616  6 Cl py                20      0.123829  2 C  py         
    72      0.123908  5 Cl px                94     -0.124420  6 Cl px         

 Vector   34  Occ=2.000000D+00  E=-3.443092D-01
              MO Center=  4.1D-01,  1.3D+00, -2.7D-03, r^2= 3.2D+00
   Bfn.  Coefficient  Atom+Function         Bfn.  Coefficient  Atom+Function  
  ----- ------------  ---------------      ----- ------------  ---------------
    55      0.456547  4 Cl pz                74     -0.437938  5 Cl pz         
    58      0.348071  4 Cl pz                77     -0.331023  5 Cl pz         
    12      0.057310  1 C  dxz               36      0.050299  3 F  pz         
    93     -0.040739  6 Cl pz                39      0.032789  3 F  pz         

 Vector   35  Occ=2.000000D+00  E=-3.224374D-01
              MO Center=  1.0D-01,  1.1D+00, -9.6D-03, r^2= 4.0D+00
   Bfn.  Coefficient  Atom+Function         Bfn.  Coefficient  Atom+Function  
  ----- ------------  ---------------      ----- ------------  ---------------
    72      0.417193  5 Cl px                54     -0.356700  4 Cl py         
    75      0.314917  5 Cl px                57     -0.270621  4 Cl py         
    73      0.239798  5 Cl py                53      0.198019  4 Cl px         
    76      0.178226  5 Cl py                91     -0.161753  6 Cl px         
    56      0.148814  4 Cl px                94     -0.119273  6 Cl px         

 Vector   36  Occ=2.000000D+00  E=-2.473671D-01
              MO Center= -8.3D-02,  1.4D-02, -1.3D-04, r^2= 3.6D+00
   Bfn.  Coefficient  Atom+Function         Bfn.  Coefficient  Atom+Function  
  ----- ------------  ---------------      ----- ------------  ---------------
    21      0.363908  2 C  pz                 6      0.349948  1 C  pz         
    74     -0.266692  5 Cl pz                77     -0.262642  5 Cl pz         
     9      0.255244  1 C  pz                93     -0.246767  6 Cl pz         
    55     -0.238883  4 Cl pz                58     -0.233171  4 Cl pz         
    96     -0.229705  6 Cl pz                24      0.208312  2 C  pz         

 Vector   37  Occ=0.000000D+00  E=-2.729068D-02
              MO Center= -1.4D-01, -1.5D-01, -1.1D-02, r^2= 2.8D+00
   Bfn.  Coefficient  Atom+Function         Bfn.  Coefficient  Atom+Function  
  ----- ------------  ---------------      ----- ------------  ---------------
     9      0.580472  1 C  pz                24     -0.566934  2 C  pz         
    21     -0.498490  2 C  pz                 6      0.452945  1 C  pz         
    96      0.231871  6 Cl pz                58     -0.220133  4 Cl pz         
    77     -0.218041  5 Cl pz                36      0.183789  3 F  pz         
    39      0.182321  3 F  pz                93      0.153922  6 Cl pz         

 Vector   38  Occ=0.000000D+00  E= 1.420167D-02
              MO Center= -2.0D-01,  2.6D-01, -3.6D-02, r^2= 5.0D+00
   Bfn.  Coefficient  Atom+Function         Bfn.  Coefficient  Atom+Function  
  ----- ------------  ---------------      ----- ------------  ---------------
     3      1.299668  1 C  s                 18     -0.844565  2 C  s          
    68     -0.734282  5 Cl s                 76      0.600536  5 Cl py         
    95      0.530540  6 Cl py                87      0.491334  6 Cl s          
    75     -0.469918  5 Cl px                 8      0.332164  1 C  py         
    56      0.315127  4 Cl px                22     -0.266885  2 C  px         

 Vector   39  Occ=0.000000D+00  E= 1.658262D-02
              MO Center=  8.5D-01,  3.4D-01,  2.0D-02, r^2= 3.6D+00
   Bfn.  Coefficient  Atom+Function         Bfn.  Coefficient  Atom+Function  
  ----- ------------  ---------------      ----- ------------  ---------------
    49      0.863111  4 Cl s                 56     -0.838831  4 Cl px         
     3     -0.762006  1 C  s                  7     -0.715143  1 C  px         
    18     -0.472227  2 C  s                  4     -0.393628  1 C  px         
    95      0.353852  6 Cl py                87      0.343935  6 Cl s          
    53     -0.331834  4 Cl px                 8     -0.324901  1 C  py         

 Vector   40  Occ=0.000000D+00  E= 5.681860D-02
              MO Center= -2.6D-01, -7.1D-01,  1.5D-02, r^2= 4.2D+00
   Bfn.  Coefficient  Atom+Function         Bfn.  Coefficient  Atom+Function  
  ----- ------------  ---------------      ----- ------------  ---------------
    18      1.364761  2 C  s                 87     -0.762482  6 Cl s          
    68     -0.675512  5 Cl s                  8      0.651816  1 C  py         
    95     -0.582929  6 Cl py                 7     -0.513441  1 C  px         
    23     -0.502245  2 C  py                94      0.477016  6 Cl px         
    76      0.436960  5 Cl py                75     -0.385488  5 Cl px         

 Vector   41  Occ=0.000000D+00  E= 1.872787D-01
              MO Center= -4.1D-01, -3.8D-01, -1.9D-03, r^2= 4.5D+00
   Bfn.  Coefficient  Atom+Function         Bfn.  Coefficient  Atom+Function  
  ----- ------------  ---------------      ----- ------------  ---------------
    22      1.513188  2 C  px                 8      0.995055  1 C  py         
     7     -0.879127  1 C  px                 3     -0.851611  1 C  s          
    68     -0.833518  5 Cl s                 33      0.818591  3 F  s          
    49      0.623203  4 Cl s                 18      0.511256  2 C  s          
    56     -0.505744  4 Cl px                87     -0.500412  6 Cl s          

 Vector   42  Occ=0.000000D+00  E= 2.706843D-01
              MO Center=  1.5D-01,  3.2D-01, -1.4D-03, r^2= 4.6D+00
   Bfn.  Coefficient  Atom+Function         Bfn.  Coefficient  Atom+Function  
  ----- ------------  ---------------      ----- ------------  ---------------
    18      3.487582  2 C  s                  3     -3.054394  1 C  s          
    23      2.788004  2 C  py                 8      2.726077  1 C  py         
     7      1.893170  1 C  px                49     -0.910212  4 Cl s          
    87      0.789414  6 Cl s                 56      0.696888  4 Cl px         
    94     -0.549760  6 Cl px                22      0.382956  2 C  px         

 Vector   43  Occ=0.000000D+00  E= 3.543320D-01
              MO Center=  5.4D-01, -5.7D-01, -2.7D-03, r^2= 3.0D+00
   Bfn.  Coefficient  Atom+Function         Bfn.  Coefficient  Atom+Function  
  ----- ------------  ---------------      ----- ------------  ---------------
     3      0.740123  1 C  s                 49      0.626149  4 Cl s          
    87      0.603859  6 Cl s                 86     -0.563394  6 Cl s          
    18      0.545854  2 C  s                 17     -0.513496  2 C  s          
    48     -0.470849  4 Cl s                  2     -0.416086  1 C  s          
    85     -0.407721  6 Cl s                 23     -0.363310  2 C  py         

 Vector   44  Occ=0.000000D+00  E= 3.972038D-01
              MO Center= -7.1D-02,  8.4D-02, -3.7D-03, r^2= 5.0D+00
   Bfn.  Coefficient  Atom+Function         Bfn.  Coefficient  Atom+Function  
  ----- ------------  ---------------      ----- ------------  ---------------
    23      1.683918  2 C  py                68      0.619139  5 Cl s          
     7      0.561127  1 C  px                95      0.533216  6 Cl py         
    67     -0.518453  5 Cl s                 20     -0.495988  2 C  py         
     8      0.469891  1 C  py                87      0.392506  6 Cl s          
    66     -0.358715  5 Cl s                 48     -0.350645  4 Cl s          

 Vector   45  Occ=0.000000D+00  E= 4.219062D-01
              MO Center=  2.8D-01, -5.4D-01, -1.1D-02, r^2= 5.6D+00
   Bfn.  Coefficient  Atom+Function         Bfn.  Coefficient  Atom+Function  
  ----- ------------  ---------------      ----- ------------  ---------------
    23      1.624110  2 C  py                 3     -1.135508  1 C  s          
     7      0.855993  1 C  px                 8     -0.816059  1 C  py         
    87      0.797392  6 Cl s                 95      0.792650  6 Cl py         
    94     -0.750063  6 Cl px                 5      0.497905  1 C  py         
    49     -0.431908  4 Cl s                 92     -0.385060  6 Cl py         

 Vector   46  Occ=0.000000D+00  E= 4.336350D-01
              MO Center=  1.1D-01,  6.1D-02, -2.1D-01, r^2= 4.8D+00
   Bfn.  Coefficient  Atom+Function         Bfn.  Coefficient  Atom+Function  
  ----- ------------  ---------------      ----- ------------  ---------------
     7      0.978361  1 C  px                56      0.606665  4 Cl px         
    24      0.515578  2 C  pz                21     -0.466170  2 C  pz         
    76     -0.404872  5 Cl py                 6     -0.366812  1 C  pz         
    53     -0.275627  4 Cl px                94      0.272617  6 Cl px         
     9      0.269083  1 C  pz                48     -0.266316  4 Cl s          

 Vector   47  Occ=0.000000D+00  E= 4.351887D-01
              MO Center=  1.3D-01,  4.2D-02,  2.1D-01, r^2= 4.8D+00
   Bfn.  Coefficient  Atom+Function         Bfn.  Coefficient  Atom+Function  
  ----- ------------  ---------------      ----- ------------  ---------------
     7      0.958405  1 C  px                56      0.621724  4 Cl px         
    24     -0.528949  2 C  pz                21      0.468310  2 C  pz         
     6      0.377184  1 C  pz                76     -0.378737  5 Cl py         
    53     -0.291331  4 Cl px                 4     -0.261625  1 C  px         
    48     -0.257336  4 Cl s                  9     -0.255139  1 C  pz         

 Vector   48  Occ=0.000000D+00  E= 4.614779D-01
              MO Center= -1.7D-01, -1.1D+00, -2.8D-02, r^2= 5.6D+00
   Bfn.  Coefficient  Atom+Function         Bfn.  Coefficient  Atom+Function  
  ----- ------------  ---------------      ----- ------------  ---------------
    22      1.530146  2 C  px                 7     -1.135396  1 C  px         
    95     -1.113745  6 Cl py                 3     -0.788480  1 C  s          
    18      0.789744  2 C  s                 49      0.618884  4 Cl s          
    92      0.542273  6 Cl py                33      0.515103  3 F  s          
    87     -0.487357  6 Cl s                 75      0.474187  5 Cl px         

 Vector   49  Occ=0.000000D+00  E= 4.650890D-01
              MO Center=  3.0D-01,  9.7D-03, -5.7D-03, r^2= 6.4D+00
   Bfn.  Coefficient  Atom+Function         Bfn.  Coefficient  Atom+Function  
  ----- ------------  ---------------      ----- ------------  ---------------
     7      1.140267  1 C  px                22     -1.103407  2 C  px         
    56      1.005860  4 Cl px                68      0.796836  5 Cl s          
     8     -0.631488  1 C  py                49     -0.543233  4 Cl s          
    76     -0.543987  5 Cl py                 3      0.539786  1 C  s          
    19      0.529194  2 C  px                53     -0.529061  4 Cl px         

 Vector   50  Occ=0.000000D+00  E= 4.833995D-01
              MO Center= -2.1D-01,  1.5D+00, -2.4D-02, r^2= 6.1D+00
   Bfn.  Coefficient  Atom+Function         Bfn.  Coefficient  Atom+Function  
  ----- ------------  ---------------      ----- ------------  ---------------
    76      1.035900  5 Cl py                 8      0.956439  1 C  py         
     3      0.903393  1 C  s                 75     -0.862729  5 Cl px         
    56      0.775827  4 Cl px                18      0.572515  2 C  s          
    73     -0.566563  5 Cl py                22      0.561463  2 C  px         
    53     -0.544919  4 Cl px                72      0.510244  5 Cl px         

 Vector   51  Occ=0.000000D+00  E= 4.954315D-01
              MO Center=  7.5D-01,  3.7D-01,  2.1D-03, r^2= 5.8D+00
   Bfn.  Coefficient  Atom+Function         Bfn.  Coefficient  Atom+Function  
  ----- ------------  ---------------      ----- ------------  ---------------
    57      0.894912  4 Cl py                54     -0.742638  4 Cl py         
     3      0.473476  1 C  s                 23     -0.467325  2 C  py         
    91      0.462682  6 Cl px                94     -0.434765  6 Cl px         
    95     -0.390597  6 Cl py                73     -0.374027  5 Cl py         
     8     -0.329111  1 C  py                76      0.313288  5 Cl py         

 Vector   52  Occ=0.000000D+00  E= 5.224678D-01
              MO Center=  5.1D-01, -9.0D-01, -2.4D-02, r^2= 5.0D+00
   Bfn.  Coefficient  Atom+Function         Bfn.  Coefficient  Atom+Function  
  ----- ------------  ---------------      ----- ------------  ---------------
    96     -0.858145  6 Cl pz                24      0.797392  2 C  pz         
    93      0.575563  6 Cl pz                58     -0.570184  4 Cl pz         
    55      0.547642  4 Cl pz               101      0.504401  6 Cl dyz        
    21     -0.444413  2 C  pz                99     -0.367468  6 Cl dxz        
     9     -0.251104  1 C  pz                18     -0.238471  2 C  s          

 Vector   53  Occ=0.000000D+00  E= 5.233799D-01
              MO Center= -1.0D-01, -1.8D-01, -8.0D-04, r^2= 6.1D+00
   Bfn.  Coefficient  Atom+Function         Bfn.  Coefficient  Atom+Function  
  ----- ------------  ---------------      ----- ------------  ---------------
    93      0.700566  6 Cl pz                96     -0.703003  6 Cl pz         
    74     -0.608691  5 Cl pz                77      0.590687  5 Cl pz         
    24     -0.355999  2 C  pz                 9      0.352952  1 C  pz         
    18      0.293460  2 C  s                  6     -0.282869  1 C  pz         
     7      0.283191  1 C  px                55     -0.278560  4 Cl pz         

 Vector   54  Occ=0.000000D+00  E= 5.241695D-01
              MO Center= -5.0D-01,  1.1D+00, -3.6D-02, r^2= 4.8D+00
   Bfn.  Coefficient  Atom+Function         Bfn.  Coefficient  Atom+Function  
  ----- ------------  ---------------      ----- ------------  ---------------
     7      1.035667  1 C  px                18      0.991325  2 C  s          
    75     -0.835349  5 Cl px                49     -0.737265  4 Cl s          
    72      0.700103  5 Cl px                76     -0.672595  5 Cl py         
    23      0.557217  2 C  py                73      0.456890  5 Cl py         
    95     -0.406729  6 Cl py                 3     -0.397601  1 C  s          

 Vector   55  Occ=0.000000D+00  E= 5.401042D-01
              MO Center=  4.7D-01,  7.5D-01,  8.7D-03, r^2= 3.8D+00
   Bfn.  Coefficient  Atom+Function         Bfn.  Coefficient  Atom+Function  
  ----- ------------  ---------------      ----- ------------  ---------------
     9      1.285273  1 C  pz                24     -0.794330  2 C  pz         
    58     -0.729321  4 Cl pz                 6     -0.690043  1 C  pz         
    77     -0.636856  5 Cl pz                61     -0.630872  4 Cl dxz        
    55      0.386332  4 Cl pz                21      0.353883  2 C  pz         
    74      0.344502  5 Cl pz                80      0.298784  5 Cl dxz        

 Vector   56  Occ=0.000000D+00  E= 5.430849D-01
              MO Center=  9.9D-02,  9.9D-01, -4.9D-03, r^2= 5.1D+00
   Bfn.  Coefficient  Atom+Function         Bfn.  Coefficient  Atom+Function  
  ----- ------------  ---------------      ----- ------------  ---------------
    77      0.778848  5 Cl pz                58     -0.616495  4 Cl pz         
    74     -0.600693  5 Cl pz                55      0.538663  4 Cl pz         
    82      0.483456  5 Cl dyz               61     -0.465316  4 Cl dxz        
    80     -0.462544  5 Cl dxz               96      0.378767  6 Cl pz         
    12      0.322484  1 C  dxz               93     -0.309020  6 Cl pz         

 Vector   57  Occ=0.000000D+00  E= 5.636918D-01
              MO Center=  4.7D-01, -5.9D-01, -1.2D-02, r^2= 5.5D+00
   Bfn.  Coefficient  Atom+Function         Bfn.  Coefficient  Atom+Function  
  ----- ------------  ---------------      ----- ------------  ---------------
    94     -0.932803  6 Cl px                 8      0.910898  1 C  py         
    68     -0.870480  5 Cl s                  3      0.863695  1 C  s          
    91      0.756819  6 Cl px                22      0.726988  2 C  px         
    57     -0.569919  4 Cl py                56      0.452472  4 Cl px         
    54      0.412570  4 Cl py                33      0.347411  3 F  s          

 Vector   58  Occ=0.000000D+00  E= 5.971765D-01
              MO Center=  2.4D-01,  7.1D-01,  1.1D-02, r^2= 3.9D+00
   Bfn.  Coefficient  Atom+Function         Bfn.  Coefficient  Atom+Function  
  ----- ------------  ---------------      ----- ------------  ---------------
    82      0.790754  5 Cl dyz               61     -0.614566  4 Cl dxz        
   101      0.502042  6 Cl dyz               58      0.481874  4 Cl pz         
    12      0.469989  1 C  dxz               55     -0.468984  4 Cl pz         
    63     -0.365932  4 Cl dyz               74      0.343046  5 Cl pz         
    77     -0.270489  5 Cl pz                27      0.220343  2 C  dxz        

 Vector   59  Occ=0.000000D+00  E= 6.448347D-01
              MO Center= -7.9D-02, -2.4D-01, -3.5D-02, r^2= 5.1D+00
   Bfn.  Coefficient  Atom+Function         Bfn.  Coefficient  Atom+Function  
  ----- ------------  ---------------      ----- ------------  ---------------
     3      1.666685  1 C  s                 23     -1.068028  2 C  py         
     7     -0.833479  1 C  px                87     -0.815053  6 Cl s          
    22      0.638436  2 C  px                68     -0.635124  5 Cl s          
   102      0.528907  6 Cl dzz               83      0.506476  5 Cl dzz        
    18     -0.442974  2 C  s                 98     -0.424530  6 Cl dxy        

 Vector   60  Occ=0.000000D+00  E= 6.583579D-01
              MO Center=  2.3D-01, -1.3D-01,  5.8D-02, r^2= 4.7D+00
   Bfn.  Coefficient  Atom+Function         Bfn.  Coefficient  Atom+Function  
  ----- ------------  ---------------      ----- ------------  ---------------
    99      0.826543  6 Cl dxz               80     -0.748862  5 Cl dxz        
    63     -0.727086  4 Cl dyz                3      0.617480  1 C  s          
    96     -0.410875  6 Cl pz                93      0.350387  6 Cl pz         
    14     -0.339283  1 C  dyz               87     -0.340020  6 Cl s          
    77     -0.298361  5 Cl pz                23     -0.294936  2 C  py         

 Vector   61  Occ=0.000000D+00  E= 6.681430D-01
              MO Center=  2.8D-01, -1.7D-01, -3.9D-02, r^2= 4.6D+00
   Bfn.  Coefficient  Atom+Function         Bfn.  Coefficient  Atom+Function  
  ----- ------------  ---------------      ----- ------------  ---------------
     3      2.209386  1 C  s                 18     -1.269411  2 C  s          
    23     -1.082894  2 C  py                 8     -0.998823  1 C  py         
    87     -0.932024  6 Cl s                 22     -0.666765  2 C  px         
     2     -0.499993  1 C  s                 86      0.459227  6 Cl s          
    64      0.440506  4 Cl dzz               94      0.440365  6 Cl px         

 Vector   62  Occ=0.000000D+00  E= 6.772443D-01
              MO Center=  2.9D-01,  6.1D-02, -1.6D-02, r^2= 4.9D+00
   Bfn.  Coefficient  Atom+Function         Bfn.  Coefficient  Atom+Function  
  ----- ------------  ---------------      ----- ------------  ---------------
    18      1.560722  2 C  s                 68     -1.493238  5 Cl s          
     8      0.911333  1 C  py                67      0.681789  5 Cl s          
    23      0.644349  2 C  py                 3     -0.638723  1 C  s          
    66      0.552499  5 Cl s                 76      0.479847  5 Cl py         
   102      0.476366  6 Cl dzz               49      0.457574  4 Cl s          

 Vector   63  Occ=0.000000D+00  E= 6.868167D-01
              MO Center=  4.3D-01, -1.7D+00, -3.1D-02, r^2= 2.4D+00
   Bfn.  Coefficient  Atom+Function         Bfn.  Coefficient  Atom+Function  
  ----- ------------  ---------------      ----- ------------  ---------------
    99      1.158268  6 Cl dxz              101      1.040859  6 Cl dyz        
    63      0.510269  4 Cl dyz               27      0.245527  2 C  dxz        
    96      0.205734  6 Cl pz                93     -0.171257  6 Cl pz         
    80      0.160736  5 Cl dxz               58     -0.147449  4 Cl pz         
    55      0.144995  4 Cl pz                77      0.134636  5 Cl pz         

 Vector   64  Occ=0.000000D+00  E= 7.164629D-01
              MO Center=  5.6D-01,  1.2D+00, -1.9D-03, r^2= 3.1D+00
   Bfn.  Coefficient  Atom+Function         Bfn.  Coefficient  Atom+Function  
  ----- ------------  ---------------      ----- ------------  ---------------
    63      1.140109  4 Cl dyz               80     -1.003315  5 Cl dxz        
    61     -0.572100  4 Cl dxz               82     -0.398780  5 Cl dyz        
    77     -0.251028  5 Cl pz                74      0.219147  5 Cl pz         
    58      0.204820  4 Cl pz               101     -0.187067  6 Cl dyz        
    55     -0.176918  4 Cl pz                24      0.087721  2 C  pz         

 Vector   65  Occ=0.000000D+00  E= 7.277610D-01
              MO Center=  5.8D-01, -8.1D-02,  4.0D-02, r^2= 4.6D+00
   Bfn.  Coefficient  Atom+Function         Bfn.  Coefficient  Atom+Function  
  ----- ------------  ---------------      ----- ------------  ---------------
    87     -1.527106  6 Cl s                 18      1.448052  2 C  s          
    86      0.755826  6 Cl s                 95     -0.608936  6 Cl py         
    85      0.593445  6 Cl s                 62      0.530629  4 Cl dyy        
    68     -0.524041  5 Cl s                 79     -0.460149  5 Cl dxy        
    64     -0.451502  4 Cl dzz               17     -0.434982  2 C  s          

 Vector   66  Occ=0.000000D+00  E= 7.361545D-01
              MO Center= -2.6D-01,  5.0D-01, -5.7D-02, r^2= 4.7D+00
   Bfn.  Coefficient  Atom+Function         Bfn.  Coefficient  Atom+Function  
  ----- ------------  ---------------      ----- ------------  ---------------
    82      0.998403  5 Cl dyz               63      0.657584  4 Cl dyz        
    24      0.637163  2 C  pz                80      0.631270  5 Cl dxz        
   101     -0.588648  6 Cl dyz               96     -0.447103  6 Cl pz         
    99      0.337898  6 Cl dxz               87      0.298480  6 Cl s          
    93      0.282510  6 Cl pz                77     -0.274641  5 Cl pz         

 Vector   67  Occ=0.000000D+00  E= 7.991886D-01
              MO Center=  2.5D-01,  3.0D-01, -1.7D-02, r^2= 3.9D+00
   Bfn.  Coefficient  Atom+Function         Bfn.  Coefficient  Atom+Function  
  ----- ------------  ---------------      ----- ------------  ---------------
    18      2.608482  2 C  s                 49     -2.097352  4 Cl s          
    68     -1.860323  5 Cl s                  8      1.616602  1 C  py         
     3      1.002026  1 C  s                 48      0.847245  4 Cl s          
    17     -0.784804  2 C  s                 56      0.754545  4 Cl px         
    67      0.713478  5 Cl s                 47      0.686470  4 Cl s          

 Vector   68  Occ=0.000000D+00  E= 8.107520D-01
              MO Center=  2.3D-01,  8.1D-01, -7.4D-03, r^2= 4.6D+00
   Bfn.  Coefficient  Atom+Function         Bfn.  Coefficient  Atom+Function  
  ----- ------------  ---------------      ----- ------------  ---------------
    49      1.630054  4 Cl s                 68     -1.602747  5 Cl s          
     7     -1.334557  1 C  px                60     -0.687106  4 Cl dxy        
    48     -0.617981  4 Cl s                 67      0.619465  5 Cl s          
    75     -0.614923  5 Cl px                22      0.610764  2 C  px         
    56     -0.588778  4 Cl px                87      0.574842  6 Cl s          

 Vector   69  Occ=0.000000D+00  E= 8.310119D-01
              MO Center= -3.3D-01, -8.1D-01, -4.4D-02, r^2= 4.5D+00
   Bfn.  Coefficient  Atom+Function         Bfn.  Coefficient  Atom+Function  
  ----- ------------  ---------------      ----- ------------  ---------------
     7     -1.326882  1 C  px                 3      1.302713  1 C  s          
    22      1.254043  2 C  px                87     -0.990234  6 Cl s          
    23     -0.813362  2 C  py                18     -0.806226  2 C  s          
    33      0.725900  3 F  s                 98     -0.666421  6 Cl dxy        
    37      0.641529  3 F  px                49      0.625159  4 Cl s          

 Vector   70  Occ=0.000000D+00  E= 8.557988D-01
              MO Center=  2.1D-01,  6.2D-02,  6.4D-02, r^2= 4.4D+00
   Bfn.  Coefficient  Atom+Function         Bfn.  Coefficient  Atom+Function  
  ----- ------------  ---------------      ----- ------------  ---------------
     9      1.223239  1 C  pz                61      0.884341  4 Cl dxz        
    24     -0.801753  2 C  pz                99     -0.621750  6 Cl dxz        
    58     -0.572631  4 Cl pz                82      0.551762  5 Cl dyz        
    14     -0.437681  1 C  dyz               80     -0.401748  5 Cl dxz        
    63      0.384639  4 Cl dyz               77     -0.382473  5 Cl pz         

 Vector   71  Occ=0.000000D+00  E= 9.217022D-01
              MO Center= -4.5D-03, -3.0D-01, -1.6D-02, r^2= 5.4D+00
   Bfn.  Coefficient  Atom+Function         Bfn.  Coefficient  Atom+Function  
  ----- ------------  ---------------      ----- ------------  ---------------
    23      3.066578  2 C  py                87      2.475010  6 Cl s          
     3     -1.935051  1 C  s                  8      1.351715  1 C  py         
     7      1.080135  1 C  px                18      0.951409  2 C  s          
    49     -0.805867  4 Cl s                 22     -0.728241  2 C  px         
    60      0.682285  4 Cl dxy               86     -0.617002  6 Cl s          

 Vector   72  Occ=0.000000D+00  E= 9.903382D-01
              MO Center=  3.9D-01,  4.0D-01, -2.7D-04, r^2= 4.2D+00
   Bfn.  Coefficient  Atom+Function         Bfn.  Coefficient  Atom+Function  
  ----- ------------  ---------------      ----- ------------  ---------------
     7      2.416876  1 C  px                49     -1.416664  4 Cl s          
    23      1.307684  2 C  py                87      0.983800  6 Cl s          
    68      0.847312  5 Cl s                 18      0.713187  2 C  s          
     2     -0.659841  1 C  s                 98     -0.575968  6 Cl dxy        
     8      0.543631  1 C  py                76     -0.535320  5 Cl py         

 Vector   73  Occ=0.000000D+00  E= 1.033125D+00
              MO Center= -3.5D-01,  1.4D-03,  1.5D-02, r^2= 4.4D+00
   Bfn.  Coefficient  Atom+Function         Bfn.  Coefficient  Atom+Function  
  ----- ------------  ---------------      ----- ------------  ---------------
     3      2.795047  1 C  s                 49     -1.987179  4 Cl s          
    18     -1.851394  2 C  s                  7      1.281654  1 C  px         
     8     -1.030189  1 C  py                22     -1.020279  2 C  px         
    17      0.794609  2 C  s                 79      0.795810  5 Cl dxy        
    56      0.791729  4 Cl px                48      0.631098  4 Cl s          

 Vector   74  Occ=0.000000D+00  E= 1.046473D+00
              MO Center= -1.2D-01, -3.4D-02,  4.6D-02, r^2= 4.2D+00
   Bfn.  Coefficient  Atom+Function         Bfn.  Coefficient  Atom+Function  
  ----- ------------  ---------------      ----- ------------  ---------------
     3      5.523663  1 C  s                 18     -4.320563  2 C  s          
    23     -2.296335  2 C  py                68     -2.187996  5 Cl s          
     7     -2.115929  1 C  px                 2     -1.078927  1 C  s          
    17      0.887806  2 C  s                 95      0.603604  6 Cl py         
    22     -0.593340  2 C  px                76      0.581429  5 Cl py         

 Vector   75  Occ=0.000000D+00  E= 1.122841D+00
              MO Center= -5.9D-02, -8.6D-02,  1.7D-02, r^2= 5.1D+00
   Bfn.  Coefficient  Atom+Function         Bfn.  Coefficient  Atom+Function  
  ----- ------------  ---------------      ----- ------------  ---------------
    18      5.068623  2 C  s                  8      3.154804  1 C  py         
     3     -2.586156  1 C  s                 87     -2.588676  6 Cl s          
    22      1.180363  2 C  px                 7      1.046353  1 C  px         
    95     -1.031944  6 Cl py                86      0.913953  6 Cl s          
    60      0.804511  4 Cl dxy               85      0.770777  6 Cl s          

 Vector   76  Occ=0.000000D+00  E= 1.131876D+00
              MO Center= -3.1D-01,  1.5D-01, -5.6D-02, r^2= 2.8D+00
   Bfn.  Coefficient  Atom+Function         Bfn.  Coefficient  Atom+Function  
  ----- ------------  ---------------      ----- ------------  ---------------
    27      0.998050  2 C  dxz                3      0.856631  1 C  s          
     9     -0.794902  1 C  pz                18     -0.681185  2 C  s          
    14     -0.659646  1 C  dyz               80      0.652892  5 Cl dxz        
    82     -0.634380  5 Cl dyz               61     -0.560031  4 Cl dxz        
    29      0.505639  2 C  dyz               24      0.497114  2 C  pz         

 Vector   77  Occ=0.000000D+00  E= 1.162079D+00
              MO Center= -1.8D-01,  5.0D-01,  1.1D-02, r^2= 4.1D+00
   Bfn.  Coefficient  Atom+Function         Bfn.  Coefficient  Atom+Function  
  ----- ------------  ---------------      ----- ------------  ---------------
    87      1.559275  6 Cl s                 23      1.346164  2 C  py         
    22     -1.186152  2 C  px                68     -1.027324  5 Cl s          
    18     -0.963008  2 C  s                 49      0.948850  4 Cl s          
    67      0.772390  5 Cl s                 56     -0.677227  4 Cl px         
    48     -0.661845  4 Cl s                 66      0.619659  5 Cl s          

 Vector   78  Occ=0.000000D+00  E= 1.220336D+00
              MO Center=  2.9D-02, -4.1D-01, -1.5D-02, r^2= 2.6D+00
   Bfn.  Coefficient  Atom+Function         Bfn.  Coefficient  Atom+Function  
  ----- ------------  ---------------      ----- ------------  ---------------
    12      0.963402  1 C  dxz               29     -0.935688  2 C  dyz        
   101     -0.819341  6 Cl dyz               61      0.671379  4 Cl dxz        
    27      0.626728  2 C  dxz               18     -0.540497  2 C  s          
    99      0.426521  6 Cl dxz                8     -0.361188  1 C  py         
     3      0.327557  1 C  s                 24      0.304615  2 C  pz         

 Vector   79  Occ=0.000000D+00  E= 1.260596D+00
              MO Center= -5.4D-01, -3.6D-01,  1.1D-02, r^2= 4.9D+00
   Bfn.  Coefficient  Atom+Function         Bfn.  Coefficient  Atom+Function  
  ----- ------------  ---------------      ----- ------------  ---------------
     8      3.356041  1 C  py                18      3.061835  2 C  s          
    68     -2.708926  5 Cl s                  3     -2.168606  1 C  s          
    23      2.124315  2 C  py                87      1.887267  6 Cl s          
    67      1.011664  5 Cl s                 86     -0.885842  6 Cl s          
    75     -0.863017  5 Cl px                66      0.852168  5 Cl s          

 Vector   80  Occ=0.000000D+00  E= 1.269019D+00
              MO Center= -1.5D+00, -7.3D-01,  4.1D-02, r^2= 2.4D+00
   Bfn.  Coefficient  Atom+Function         Bfn.  Coefficient  Atom+Function  
  ----- ------------  ---------------      ----- ------------  ---------------
    39      1.220497  3 F  pz                 8     -1.043495  1 C  py         
    18     -0.974248  2 C  s                 23     -0.937689  2 C  py         
    87     -0.908771  6 Cl s                 49      0.817258  4 Cl s          
    24     -0.791383  2 C  pz                36     -0.776719  3 F  pz         
     7     -0.733967  1 C  px                 3      0.683668  1 C  s          

 Vector   81  Occ=0.000000D+00  E= 1.321687D+00
              MO Center= -1.1D-01, -1.0D-01,  6.1D-02, r^2= 5.7D+00
   Bfn.  Coefficient  Atom+Function         Bfn.  Coefficient  Atom+Function  
  ----- ------------  ---------------      ----- ------------  ---------------
    49     -4.524272  4 Cl s                  7      4.444441  1 C  px         
    87      2.629599  6 Cl s                 22     -2.050909  2 C  px         
    23      2.048308  2 C  py                56      1.774301  4 Cl px         
    68      1.687646  5 Cl s                 48      1.394330  4 Cl s          
    47      1.194329  4 Cl s                 95      0.949560  6 Cl py         

 Vector   82  Occ=0.000000D+00  E= 1.466565D+00
              MO Center= -8.5D-01, -4.1D-01,  3.3D-02, r^2= 4.2D+00
   Bfn.  Coefficient  Atom+Function         Bfn.  Coefficient  Atom+Function  
  ----- ------------  ---------------      ----- ------------  ---------------
    23      4.697616  2 C  py                18      4.361789  2 C  s          
     3     -4.128437  1 C  s                  7      3.191538  1 C  px         
     8      3.166487  1 C  py                49     -2.657861  4 Cl s          
    87      2.514187  6 Cl s                 38     -1.389573  3 F  py         
    56      1.067956  4 Cl px                86     -0.738060  6 Cl s          

 Vector   83  Occ=0.000000D+00  E= 1.508993D+00
              MO Center= -2.2D-01,  9.6D-02,  2.9D-02, r^2= 2.5D+00
   Bfn.  Coefficient  Atom+Function         Bfn.  Coefficient  Atom+Function  
  ----- ------------  ---------------      ----- ------------  ---------------
     3      1.316379  1 C  s                 68     -1.230836  5 Cl s          
    12     -1.119054  1 C  dxz               27      1.052973  2 C  dxz        
    87     -1.029239  6 Cl s                 23     -0.941446  2 C  py         
    14      0.896219  1 C  dyz                7     -0.690485  1 C  px         
    82      0.559186  5 Cl dyz               18      0.551020  2 C  s          

 Vector   84  Occ=0.000000D+00  E= 1.559713D+00
              MO Center= -3.3D-01, -2.5D-01, -7.7D-03, r^2= 3.5D+00
   Bfn.  Coefficient  Atom+Function         Bfn.  Coefficient  Atom+Function  
  ----- ------------  ---------------      ----- ------------  ---------------
     3      3.130569  1 C  s                 87     -2.618994  6 Cl s          
    23     -2.218673  2 C  py                68     -2.019234  5 Cl s          
    18      1.542518  2 C  s                  8      1.095038  1 C  py         
    49     -1.002341  4 Cl s                 95     -0.874346  6 Cl py         
    86      0.676770  6 Cl s                 26     -0.667081  2 C  dxy        

 Vector   85  Occ=0.000000D+00  E= 1.617963D+00
              MO Center= -3.0D-01, -7.0D-03, -1.4D-03, r^2= 2.9D+00
   Bfn.  Coefficient  Atom+Function         Bfn.  Coefficient  Atom+Function  
  ----- ------------  ---------------      ----- ------------  ---------------
    68      2.632627  5 Cl s                 23     -1.832679  2 C  py         
     8     -1.591286  1 C  py                18     -1.582356  2 C  s          
     7      1.463144  1 C  px                26     -1.213178  2 C  dxy        
    87     -1.188019  6 Cl s                 49     -1.118018  4 Cl s          
    76     -0.926436  5 Cl py                67     -0.808640  5 Cl s          

 Vector   86  Occ=0.000000D+00  E= 1.721152D+00
              MO Center= -1.5D-01, -2.1D-01,  1.1D-02, r^2= 2.5D+00
   Bfn.  Coefficient  Atom+Function         Bfn.  Coefficient  Atom+Function  
  ----- ------------  ---------------      ----- ------------  ---------------
    18      1.809079  2 C  s                 87     -1.383247  6 Cl s          
    49     -1.265847  4 Cl s                 11      1.135211  1 C  dxy        
    22      0.994978  2 C  px                29     -0.723068  2 C  dyz        
    33      0.692077  3 F  s                 28      0.641763  2 C  dyy        
    95     -0.638459  6 Cl py                14     -0.631669  1 C  dyz        

 Vector   87  Occ=0.000000D+00  E= 1.729473D+00
              MO Center= -1.6D-01, -1.2D-01,  2.6D-03, r^2= 2.0D+00
   Bfn.  Coefficient  Atom+Function         Bfn.  Coefficient  Atom+Function  
  ----- ------------  ---------------      ----- ------------  ---------------
    29      1.618705  2 C  dyz               14      1.507632  1 C  dyz        
    12      0.850896  1 C  dxz               18      0.701392  2 C  s          
    11      0.554457  1 C  dxy               87     -0.555302  6 Cl s          
    49     -0.524100  4 Cl s                 27      0.468823  2 C  dxz        
    22      0.451363  2 C  px                33      0.366873  3 F  s          

 Vector   88  Occ=0.000000D+00  E= 1.881608D+00
              MO Center= -1.9D-01,  7.9D-02,  7.0D-03, r^2= 2.1D+00
   Bfn.  Coefficient  Atom+Function         Bfn.  Coefficient  Atom+Function  
  ----- ------------  ---------------      ----- ------------  ---------------
     3      3.544288  1 C  s                 18     -3.114360  2 C  s          
    23     -1.895776  2 C  py                 8     -1.818623  1 C  py         
    26     -1.424572  2 C  dxy               13      1.276577  1 C  dyy        
    11      1.097448  1 C  dxy               20     -0.895851  2 C  py         
     5     -0.840436  1 C  py                 7     -0.842135  1 C  px         

 Vector   89  Occ=0.000000D+00  E= 1.997601D+00
              MO Center= -1.2D-01, -5.8D-02,  4.1D-03, r^2= 2.6D+00
   Bfn.  Coefficient  Atom+Function         Bfn.  Coefficient  Atom+Function  
  ----- ------------  ---------------      ----- ------------  ---------------
     3      6.407633  1 C  s                 18     -5.737045  2 C  s          
    23     -1.552312  2 C  py                 8     -1.475426  1 C  py         
    68     -1.223257  5 Cl s                 87      1.104123  6 Cl s          
     2     -1.098225  1 C  s                 22     -1.092095  2 C  px         
    15     -0.999633  1 C  dzz               49     -0.947306  4 Cl s          

 Vector   90  Occ=0.000000D+00  E= 2.177083D+00
              MO Center= -6.5D-01, -2.4D-01,  2.3D-02, r^2= 2.8D+00
   Bfn.  Coefficient  Atom+Function         Bfn.  Coefficient  Atom+Function  
  ----- ------------  ---------------      ----- ------------  ---------------
    33      2.636559  3 F  s                 22      1.958156  2 C  px         
     7     -1.733458  1 C  px                11     -1.575173  1 C  dxy        
    49      1.208101  4 Cl s                 87     -1.121978  6 Cl s          
    26     -0.944349  2 C  dxy               28      0.944531  2 C  dyy        
    32     -0.934255  3 F  s                 68     -0.908482  5 Cl s          

 Vector   91  Occ=0.000000D+00  E= 2.313659D+00
              MO Center= -9.4D-01, -6.0D-01,  3.1D-02, r^2= 2.1D+00
   Bfn.  Coefficient  Atom+Function         Bfn.  Coefficient  Atom+Function  
  ----- ------------  ---------------      ----- ------------  ---------------
    18      3.135783  2 C  s                 33     -2.769735  3 F  s          
    32      1.303098  3 F  s                  3     -1.178725  1 C  s          
    11     -1.125487  1 C  dxy               22     -1.064309  2 C  px         
     7      0.987522  1 C  px                30     -0.784770  2 C  dzz        
    23      0.753813  2 C  py                37     -0.728762  3 F  px         

 Vector   92  Occ=0.000000D+00  E= 2.457301D+00
              MO Center= -2.0D-01, -1.5D-01,  2.1D-03, r^2= 2.2D+00
   Bfn.  Coefficient  Atom+Function         Bfn.  Coefficient  Atom+Function  
  ----- ------------  ---------------      ----- ------------  ---------------
     3      2.190104  1 C  s                 33      1.228069  3 F  s          
    28     -1.101538  2 C  dyy               13     -1.067431  1 C  dyy        
    15     -1.024870  1 C  dzz               17      0.930603  2 C  s          
    25     -0.921389  2 C  dxx                7     -0.854472  1 C  px         
     2      0.847536  1 C  s                 10     -0.840816  1 C  dxx        

 Vector   93  Occ=0.000000D+00  E= 2.759586D+00
              MO Center= -9.6D-02, -7.5D-02,  1.9D-03, r^2= 2.9D+00
   Bfn.  Coefficient  Atom+Function         Bfn.  Coefficient  Atom+Function  
  ----- ------------  ---------------      ----- ------------  ---------------
    18     -5.242639  2 C  s                  3      4.773160  1 C  s          
     8     -2.270453  1 C  py                23     -2.238449  2 C  py         
    28      1.282898  2 C  dyy               25      1.231450  2 C  dxx        
    30      1.149361  2 C  dzz               49      1.146417  4 Cl s          
    68      1.095860  5 Cl s                 22     -1.052374  2 C  px         

 Vector   94  Occ=0.000000D+00  E= 2.912373D+00
              MO Center=  6.9D-01, -6.9D-01, -7.8D-03, r^2= 4.3D+00
   Bfn.  Coefficient  Atom+Function         Bfn.  Coefficient  Atom+Function  
  ----- ------------  ---------------      ----- ------------  ---------------
    87      3.044071  6 Cl s                  3     -2.578003  1 C  s          
    49      2.069085  4 Cl s                102     -1.454426  6 Cl dzz        
    97     -1.429001  6 Cl dxx              100     -1.372251  6 Cl dyy        
    23      1.215585  2 C  py                59     -1.179459  4 Cl dxx        
    62     -1.139670  4 Cl dyy               64     -1.122778  4 Cl dzz        

 Vector   95  Occ=0.000000D+00  E= 2.986523D+00
              MO Center= -3.7D-01,  1.5D+00, -2.0D-02, r^2= 2.8D+00
   Bfn.  Coefficient  Atom+Function         Bfn.  Coefficient  Atom+Function  
  ----- ------------  ---------------      ----- ------------  ---------------
    68      3.832043  5 Cl s                 49     -2.302544  4 Cl s          
    83     -1.800463  5 Cl dzz               78     -1.777494  5 Cl dxx        
    81     -1.695556  5 Cl dyy                7      1.504325  1 C  px         
    67      1.323921  5 Cl s                  3     -1.250003  1 C  s          
    64      1.049477  4 Cl dzz               62      0.959736  4 Cl dyy        

 Vector   96  Occ=0.000000D+00  E= 3.155992D+00
              MO Center=  4.8D-01, -4.4D-01, -3.8D-03, r^2= 4.6D+00
[...]
   14      551.307 ||       0.001               0.001             0.207
   15      836.235 ||      -0.481               1.810            -0.003
   16      964.459 ||       1.708               0.195            -0.012
   17     1188.956 ||       1.710              -0.080            -0.012
   18     1707.865 ||      -0.557              -0.775             0.007
 ----------------------------------------------------------------------------



  
  
 ----------------------------------------------------------------------------
 Normal Eigenvalue ||                 Infra Red Intensities
  Mode   [cm**-1]  || [atomic units] [(debye/angs)**2] [(KM/mol)] [arbitrary]
 ------ ---------- || -------------- ----------------- ---------- -----------
    1      -29.068 ||    0.000011           0.000         0.011       0.004
    2      -21.923 ||    0.000008           0.000         0.008       0.003
    3      -15.777 ||    0.000000           0.000         0.000       0.000
    4       -7.746 ||    0.000020           0.000         0.020       0.008
    5       -7.343 ||    0.000006           0.000         0.006       0.003
    6       -7.051 ||    0.000001           0.000         0.001       0.000
    7      117.907 ||    0.000057           0.001         0.056       0.023
    8      170.803 ||    0.001304           0.030         1.272       0.520
    9      251.396 ||    0.000323           0.007         0.315       0.129
   10      313.997 ||    0.000094           0.002         0.091       0.037
   11      361.094 ||    0.000228           0.005         0.222       0.091
   12      402.636 ||    0.000858           0.020         0.836       0.342
   13      517.594 ||    0.000130           0.003         0.127       0.052
   14      551.307 ||    0.001849           0.043         1.802       0.737
   15      836.235 ||    0.152061           3.508       148.237      60.628
   16      964.459 ||    0.128069           2.955       124.848      51.062
   17     1188.956 ||    0.126982           2.930       123.788      50.628
   18     1707.865 ||    0.039460           0.910        38.468      15.733
 ----------------------------------------------------------------------------





        Vibrational analysis via the FX method 
  --- with translations and rotations projected out ---
  --- via the Eckart algorithm                      ---
 Projected Nuclear Hessian trans-rot subspace norm:1.1370D-33
                         (should be close to zero!) 

          --------------------------------------------------------
          MASS-WEIGHTED PROJECTED HESSIAN (Hartree/Bohr/Bohr/Kamu)
          --------------------------------------------------------


               1            2            3            4            5            6            7            8            9           10
   ----- ----- ----- ----- -----
    1    3.57076D+01
    2    1.24246D+01  5.54361D+01
    3   -2.50423D-01 -2.62071D-01  5.92216D+00
    4   -1.12488D+01 -1.48245D+01  1.05211D-01  4.77713D+01
    5   -1.35189D+01 -3.76776D+01  2.16666D-01  1.32981D+01  5.97922D+01
    6    1.01029D-01  2.25912D-01 -3.77763D+00 -3.26173D-01 -2.75362D-01  8.00826D+00
    7   -2.58898D+00 -7.22216D-02  2.25055D-02 -2.26858D+01 -4.55360D+00  1.58309D-01  2.20845D+01
    8   -2.59643D+00 -1.76357D-01  2.03755D-02 -2.63345D+00 -4.95419D+00  2.77076D-02  2.83743D+00  4.45272D+00
    9    3.19978D-02  4.06356D-03  4.89467D-01  1.50222D-01  4.01111D-02 -2.30552D+00 -1.57414D-01 -3.17481D-02  1.01063D+00
   10   -8.79072D+00 -2.24981D+00  6.09181D-02 -1.30978D+00  4.69321D-02  8.92730D-03 -1.92444D-01 -1.39544D-01  3.42954D-03  6.94149D+00
   11   -1.27068D+00 -2.06135D+00  1.25624D-02 -1.19607D+00  1.23698D-02  8.00545D-03 -1.19720D-01 -1.22378D-01  2.17971D-03  1.08145D+00
   12    5.62206D-02  1.83939D-02 -9.17142D-01  1.41252D-02  5.31979D-04  3.03895D-02  3.41641D-03  2.33729D-03  2.65443D-01 -4.86151D-02
   13   -3.62580D+00  3.66336D+00  6.18959D-03 -2.64539D-01  2.16875D-01  3.00570D-03  2.40348D-01 -1.49833D-01 -2.06292D-03 -9.52390D-01
   14    2.71993D+00 -6.85406D+00  1.49437D-03  1.46376D+00 -1.49313D+00 -4.28315D-03 -1.22787D-01 -5.68846D-02  5.56795D-04  3.81100D-01
   15    9.77525D-03 -6.44774D-03 -9.36427D-01 -1.12674D-03  5.64806D-03  2.86652D-01 -2.35845D-03  7.53251D-04 -1.32165D-01  5.69402D-03
   16   -3.15610D-03  4.55492D-02  1.36882D-03 -3.09924D+00  3.22193D+00  3.26967D-03 -1.52011D+00  1.26162D+00  7.91644D-03  6.96284D-02
   17    1.10558D+00 -1.35754D+00 -2.47744D-03  2.56759D+00 -7.82236D+00  4.82256D-03  8.60886D-01 -9.72960D-02 -5.21304D-03 -6.92486D-02
   18   -2.06585D-03  6.24043D-03  2.36522D-01  5.71462D-03 -1.36157D-03 -1.09598D+00  9.04862D-03 -7.85668D-03  1.85649D-01 -5.22295D-04


              11           12           13           14           15           16           17           18
   ----- ----- ----- ----- -----
   11    1.38208D+00
   12   -1.10837D-02  2.77034D-01
   13    5.79692D-01  5.18687D-03  3.05412D+00
   14    2.67505D-02 -2.41544D-03 -2.73965D+00  5.04509D+00
   15   -3.68557D-03  8.41534D-02 -9.96751D-03  2.75041D-03  2.70563D-01
   16   -1.27874D-01 -2.98550D-04  7.86689D-05 -1.75567D-03  9.45572D-04  2.86813D+00
   17   -1.18331D-01  6.89599D-04 -2.65310D-03 -1.40118D-01  8.48396D-04 -2.71439D+00  5.70776D+00
   18    1.11402D-03 -3.73810D-02  9.14578D-04  8.88294D-04  1.23339D-01 -9.19934D-03  9.30687D-04  2.80672D-01

 center of mass
 --------------
 x =   0.01296500 y =  -0.00052080 z =   0.00957314

 moments of inertia (a.u.)
 ------------------
        1224.735289191197          44.205660952871           5.074960369705
          44.205660952871         757.154768679344           3.866926101118
           5.074960369705           3.866926101118        1981.793624955303

 Rotational Constants
 --------------------
 A=   0.079947 cm-1  (  0.115023 K)
 B=   0.048989 cm-1  (  0.070483 K)
 C=   0.030376 cm-1  (  0.043703 K)


 Temperature                      =   298.15K
 frequency scaling parameter      =   1.0000

 Zero-Point correction to Energy  =   10.553 kcal/mol  (  0.016818 au)
 Thermal correction to Energy     =   14.450 kcal/mol  (  0.023028 au)
 Thermal correction to Enthalpy   =   15.042 kcal/mol  (  0.023972 au)

 Total Entropy                    =   82.007 cal/mol-K
   - Translational                =   40.866 cal/mol-K (mol. weight = 147.9050)
   - Rotational                   =   28.983 cal/mol-K (symmetry #  =        1)
   - Vibrational                  =   12.158 cal/mol-K

 Cv (constant volume heat capacity) =   19.795 cal/mol-K
   - Translational                  =    2.979 cal/mol-K
   - Rotational                     =    2.979 cal/mol-K
   - Vibrational                    =   13.836 cal/mol-K



          -------------------------------------------------
          NORMAL MODE EIGENVECTORS IN CARTESIAN COORDINATES
          -------------------------------------------------
             (Projected Frequencies expressed in cm-1)

                    1           2           3           4           5           6
 
 P.Frequency       -0.00       -0.00       -0.00        0.00        0.00        0.00
 
           1    -0.08453    -0.00843    -0.00000     0.00011    -0.00005     0.00601
           2    -0.00784     0.02780     0.00005     0.00005    -0.00010    -0.07700
           3    -0.00000     0.00000     0.07619     0.03485     0.02346    -0.00000
           4    -0.06766    -0.05398     0.00009    -0.00032     0.00003    -0.01321
           5    -0.01519     0.04765    -0.00009    -0.00016     0.00020    -0.06863
           6    -0.00000    -0.00000     0.06161    -0.02396     0.07182    -0.00000
           7    -0.06519    -0.06065     0.00034    -0.00092    -0.00004    -0.01603
           8    -0.03325     0.09643    -0.00017    -0.00046     0.00045    -0.04804
           9    -0.00000    -0.00000     0.09419    -0.10936     0.06632    -0.00000
          10    -0.08844     0.00214    -0.00032     0.00085     0.00004     0.01047
          11     0.01557    -0.03540     0.00015     0.00042    -0.00041    -0.10367
          12    -0.00000     0.00001     0.03524     0.14657     0.02831    -0.00000
          13    -0.10372     0.04340     0.00023    -0.00014    -0.00026     0.02788
          14    -0.02194     0.06590     0.00011    -0.00007    -0.00012    -0.06093
          15     0.00000    -0.00000     0.13870     0.00019    -0.04820    -0.00000
          16    -0.04745    -0.10855    -0.00013    -0.00013     0.00024    -0.03624
          17    -0.00294     0.01457    -0.00016    -0.00007     0.00025    -0.08258
          18    -0.00000    -0.00000     0.00112     0.00076     0.14534    -0.00000

                    7           8           9          10          11          12
 
 P.Frequency      119.15      170.92      251.62      313.76      361.20      402.78
 
           1     0.00014     0.05532    -0.03138     0.00152    -0.00063     0.01782
           2     0.00005    -0.00724    -0.02429     0.00074     0.06528     0.00712
           3     0.01825    -0.00036     0.00031     0.21941    -0.00016    -0.00023
           4     0.00036     0.04328    -0.01331     0.00094     0.06366    -0.03095
           5     0.00016    -0.00328    -0.04168     0.00047     0.02513     0.02260
           6     0.04891    -0.00030     0.00025     0.14137    -0.00051     0.00008
           7     0.00102     0.03093    -0.00788    -0.00054     0.08492    -0.01475
           8     0.00050     0.06786    -0.09795    -0.00027    -0.05556    -0.14397
           9     0.14326    -0.00049     0.00039    -0.06900    -0.00042     0.00062
          10     0.00042     0.03797    -0.05246    -0.00021     0.03282     0.07542
          11     0.00022     0.09477     0.07204    -0.00011    -0.03406     0.02032
          12     0.05986    -0.00059     0.00011    -0.03780    -0.00011    -0.00058
          13    -0.00054    -0.01922     0.08381    -0.00019    -0.07539     0.00309
          14    -0.00028    -0.05866     0.06124    -0.00012     0.09018    -0.02607
          15    -0.07829     0.00036    -0.00079    -0.02768     0.00020     0.00007
          16    -0.00059    -0.06939    -0.01174    -0.00015    -0.02520    -0.06599
          17    -0.00029    -0.06937    -0.05742    -0.00004    -0.05695     0.07377
          18    -0.08244     0.00073     0.00028    -0.02084     0.00037     0.00022

                   13          14          15          16          17          18
 
 P.Frequency      517.75      551.23      836.16      964.40     1188.89     1707.86
 
           1    -0.01509    -0.00116    -0.02305     0.25475     0.00467     0.07768
           2    -0.03218    -0.00063     0.18072    -0.04169     0.07647     0.17416
           3     0.00034    -0.16518    -0.00047    -0.00161    -0.00031    -0.00116
           4    -0.08835     0.00149    -0.03064    -0.01210     0.21976    -0.10684
           5    -0.03446     0.00076     0.16672     0.06289    -0.07978    -0.18420
           6     0.00044     0.22677    -0.00034    -0.00013    -0.00126     0.00140
           7    -0.13209    -0.00047    -0.04200    -0.04767    -0.11722     0.02785
           8     0.01039    -0.00015    -0.02923    -0.02783    -0.01049     0.00794
           9     0.00096    -0.04603     0.00040     0.00044     0.00085    -0.00022
          10     0.08798     0.00016    -0.00646    -0.04302    -0.00616    -0.00545
          11     0.02265     0.00005    -0.00649    -0.00536    -0.00470    -0.00186
          12    -0.00068     0.00760     0.00007     0.00030     0.00006     0.00004
          13    -0.03250     0.00004     0.02513    -0.01986     0.00190     0.00208
          14     0.03930     0.00009    -0.04641     0.01831    -0.00082    -0.00491
          15     0.00008     0.01175    -0.00002     0.00008    -0.00001     0.00000
          16     0.05178    -0.00005     0.02257     0.00551    -0.00907    -0.00176
          17    -0.04473    -0.00010    -0.05045    -0.00510     0.01236     0.00591
          18    -0.00019    -0.01548     0.00001    -0.00002     0.00002    -0.00001



 ----------------------------------------------------------------------------
 Normal Eigenvalue ||    Projected Derivative Dipole Moments (debye/angs)
  Mode   [cm**-1]  ||      [d/dqX]             [d/dqY]           [d/dqZ]
 ------ ---------- || ------------------ ------------------ -----------------
    1       -0.000 ||      -0.003              -0.005             0.000
    2       -0.000 ||      -0.009              -0.012             0.000
    3       -0.000 ||      -0.000              -0.000            -0.016
    4        0.000 ||       0.000               0.000             0.016
    5        0.000 ||       0.000              -0.000             0.014
    6        0.000 ||       0.004               0.005             0.000
    7      119.151 ||      -0.000              -0.000            -0.037
    8      170.924 ||       0.140              -0.102            -0.001
    9      251.615 ||      -0.046               0.073             0.000
   10      313.762 ||       0.000               0.001            -0.046
   11      361.205 ||      -0.065               0.033             0.000
   12      402.782 ||      -0.090               0.109             0.000
   13      517.751 ||      -0.046              -0.030             0.000
   14      551.228 ||       0.001               0.001             0.207
   15      836.155 ||      -0.481               1.810            -0.003
   16      964.402 ||       1.708               0.195            -0.012
   17     1188.888 ||       1.709              -0.080            -0.012
   18     1707.864 ||      -0.557              -0.775             0.007
 ----------------------------------------------------------------------------



  
  
 ----------------------------------------------------------------------------
 Normal Eigenvalue ||           Projected Infra Red Intensities
  Mode   [cm**-1]  || [atomic units] [(debye/angs)**2] [(KM/mol)] [arbitrary]
 ------ ---------- || -------------- ----------------- ---------- -----------
    1       -0.000 ||    0.000001           0.000         0.001       0.001
    2       -0.000 ||    0.000011           0.000         0.010       0.004
    3       -0.000 ||    0.000010           0.000         0.010       0.004
    4        0.000 ||    0.000011           0.000         0.010       0.004
    5        0.000 ||    0.000009           0.000         0.009       0.004
    6        0.000 ||    0.000002           0.000         0.002       0.001
    7      119.151 ||    0.000059           0.001         0.058       0.024
    8      170.924 ||    0.001304           0.030         1.271       0.520
    9      251.615 ||    0.000325           0.008         0.317       0.130
   10      313.762 ||    0.000093           0.002         0.091       0.037
   11      361.205 ||    0.000229           0.005         0.223       0.091
   12      402.782 ||    0.000865           0.020         0.844       0.345
   13      517.751 ||    0.000131           0.003         0.128       0.052
   14      551.228 ||    0.001850           0.043         1.803       0.737
   15      836.155 ||    0.152047           3.508       148.223      60.622
   16      964.402 ||    0.128132           2.956       124.909      51.087
   17     1188.888 ||    0.126926           2.928       123.733      50.606
   18     1707.864 ||    0.039458           0.910        38.466      15.732
 ----------------------------------------------------------------------------



 vib:animation  F

 Task  times  cpu:       87.8s     wall:       87.8s


                                NWChem Input Module
                                -------------------


 Summary of allocated global arrays
-----------------------------------
  No active global arrays


MA_summarize_allocated_blocks: starting scan ...
MA_summarize_allocated_blocks: scan completed: 0 heap blocks, 0 stack blocks
MA usage statistics:

	allocation statistics:
					      heap	     stack
					      ----	     -----
	current number of blocks	         0	         0
	maximum number of blocks	        25	        54
	current total bytes		         0	         0
	maximum total bytes		 121889784	  83227432
	maximum total K-bytes		    121890	     83228
	maximum total M-bytes		       122	        84


                                     CITATION
                                     --------
                Please cite the following reference when publishing
                           results obtained with NWChem:

          E. Apra, E. J. Bylaska, W. A. de Jong, N. Govind, K. Kowalski,
       T. P. Straatsma, M. Valiev, H. J. J. van Dam, Y. Alexeev, J. Anchell,
       V. Anisimov, F. W. Aquino, R. Atta-Fynn, J. Autschbach, N. P. Bauman,
     J. C. Becca, D. E. Bernholdt, K. Bhaskaran-Nair, S. Bogatko, P. Borowski,
         J. Boschen, J. Brabec, A. Bruner, E. Cauet, Y. Chen, G. N. Chuev,
      C. J. Cramer, J. Daily, M. J. O. Deegan, T. H. Dunning Jr., M. Dupuis,
   K. G. Dyall, G. I. Fann, S. A. Fischer, A. Fonari, H. Fruchtl, L. Gagliardi,
      J. Garza, N. Gawande, S. Ghosh, K. Glaesemann, A. W. Gotz, J. Hammond,
       V. Helms, E. D. Hermes, K. Hirao, S. Hirata, M. Jacquelin, L. Jensen,
   B. G. Johnson, H. Jonsson, R. A. Kendall, M. Klemm, R. Kobayashi, V. Konkov,
      S. Krishnamoorthy, M. Krishnan, Z. Lin, R. D. Lins, R. J. Littlefield,
      A. J. Logsdail, K. Lopata, W. Ma, A. V. Marenich, J. Martin del Campo,
   D. Mejia-Rodriguez, J. E. Moore, J. M. Mullin, T. Nakajima, D. R. Nascimento,
    J. A. Nichols, P. J. Nichols, J. Nieplocha, A. Otero-de-la-Roza, B. Palmer,
    A. Panyala, T. Pirojsirikul, B. Peng, R. Peverati, J. Pittner, L. Pollack,
   R. M. Richard, P. Sadayappan, G. C. Schatz, W. A. Shelton, D. W. Silverstein,
   D. M. A. Smith, T. A. Soares, D. Song, M. Swart, H. L. Taylor, G. S. Thomas,
            V. Tipparaju, D. G. Truhlar, K. Tsemekhman, T. Van Voorhis,
      A. Vazquez-Mayagoitia, P. Verma, O. Villa, A. Vishnu, K. D. Vogiatzis,
        D. Wang, J. H. Weare, M. J. Williamson, T. L. Windus, K. Wolinski,
        A. T. Wong, Q. Wu, C. Yang, Q. Yu, M. Zacharias, Z. Zhang, Y. Zhao,
                                and R. J. Harrison
                        "NWChem: Past, present, and future
                         J. Chem. Phys. 152, 184102 (2020)
                               doi:10.1063/5.0004997

                                      AUTHORS
                                      -------
  E. Apra, E. J. Bylaska, N. Govind, K. Kowalski, M. Valiev, D. Mejia-Rodriguez,
       A. Kunitsa, N. P. Bauman, A. Panyala, W. A. de Jong, T. P. Straatsma,
   H. J. J. van Dam, D. Wang, T. L. Windus, J. Hammond, J. Autschbach, A. Woods,
    K. Bhaskaran-Nair, J. Brabec, K. Lopata, S. A. Fischer, S. Krishnamoorthy,
     M. Jacquelin, W. Ma, M. Klemm, O. Villa, Y. Chen, V. Anisimov, F. Aquino,
     S. Hirata, M. T. Hackler, E. Hermes, L. Jensen, J. E. Moore, J. C. Becca,
      V. Konjkov, T. Risthaus, M. Malagoli, A. Marenich, A. Otero-de-la-Roza,
        J. Mullin, P. Nichols, R. Peverati, J. Pittner, Y. Zhao, P.-D. Fan,
        A. Fonari, M. J. Williamson, R. J. Harrison, J. R. Rehr, M. Dupuis,
     D. Silverstein, D. M. A. Smith, J. Nieplocha, V. Tipparaju, M. Krishnan,
     B. E. Van Kuiken, A. Vazquez-Mayagoitia, M. Swart, Q. Wu, T. Van Voorhis,
     A. A. Auer, M. Nooijen, L. D. Crosby, E. Brown, G. Cisneros, G. I. Fann,
   H. Fruchtl, J. Garza, K. Hirao, R. A. Kendall, J. A. Nichols, K. Tsemekhman,
    K. Wolinski, J. Anchell, D. E. Bernholdt, P. Borowski, T. Clark, D. Clerc,
   H. Dachsel, M. J. O. Deegan, K. Dyall, D. Elwood, E. Glendening, M. Gutowski,
   A. C. Hess, J. Jaffe, B. G. Johnson, J. Ju, R. Kobayashi, R. Kutteh, Z. Lin,
   R. Littlefield, X. Long, B. Meng, T. Nakajima, S. Niu, L. Pollack, M. Rosing,
   K. Glaesemann, G. Sandrone, M. Stave, H. Taylor, G. Thomas, J. H. van Lenthe,
                               A. T. Wong, Z. Zhang.

 Total times  cpu:      158.7s     wall:      158.7s
