 argument  1 = xyz93.in
                                         
                                         


             Northwest Computational Chemistry Package (NWChem) 7.2.3
             --------------------------------------------------------


                    Environmental Molecular Sciences Laboratory
                       Pacific Northwest National Laboratory
                                Richland, WA 99352

                              Copyright (c) 1994-2022
                       Pacific Northwest National Laboratory
                            Battelle Memorial Institute

             NWChem is an open-source computational chemistry package
                        distributed under the terms of the
                      Educational Community License (ECL) 2.0
             A copy of the license is included with this distribution
                              in the LICENSE.TXT file

                                  ACKNOWLEDGMENT
                                  --------------

            This software and its documentation were developed at the
            EMSL at Pacific Northwest National Laboratory, a multiprogram
            national laboratory, operated for the U.S. Department of Energy
            by Battelle under Contract Number DE-AC05-76RL01830. Support
            for this work was provided by the Department of Energy Office
            of Biological and Environmental Research, Office of Basic
            Energy Sciences, and the Office of Advanced Scientific Computing.


           Job information
           ---------------

    hostname        = gpu001
    program         = /home/rrichard/nwchem/bin/LINUX64/nwchem
    date            = Tue Jul 15 00:52:00 2025

    compiled        = Mon_Jul_07_13:04:19_2025
    source          = /home/rrichard/nwchem
    nwchem branch   = 7.2.3
    nwchem revision = v7.2.0-beta1-1473-g5687662257
    ga revision     = 5.9.2
    use scalapack   = T
    input           = xyz93.in
    prefix          = xyz93.
    data base       = ./xyz93.db
    status          = startup
    nproc           =        2
    time left       =     -1s



           Memory information
           ------------------

    heap     =    431126721 doubles =     3289.2 Mbytes
    stack    =    431126725 doubles =     3289.2 Mbytes
    global   =    246358129 doubles =     1879.6 Mbytes (distinct from heap & stack)
    total    =   1108611575 doubles =     8458.0 Mbytes
    verify   = yes
    hardfail = no 


           Directory information
           ---------------------

  0 permanent = .
  0 scratch   = .




                                NWChem Input Module
                                -------------------



 Scaling coordinates for geometry "geometry" by  1.889725989
 (inverse scale =  0.529177249)

 C1  symmetry detected

          ------
          auto-z
          ------
  no constraints, skipping    0.0000000000000000     
  no constraints, skipping    0.0000000000000000     


                             Geometry "geometry" -> ""
                             -------------------------

 Output coordinates in angstroms (scale by  1.889725989 to convert to a.u.)

  No.       Tag          Charge          X              Y              Z
 ---- ---------------- ---------- -------------- -------------- --------------
    1 C                    6.0000     0.01481122    -3.25282152     0.26638188
    2 C                    6.0000     0.16715394    -2.05286658    -0.31852384
    3 C                    6.0000    -0.07958417    -0.71408313     0.33603387
    4 C                    6.0000    -1.10212770     1.68346135     0.40674080
    5 C                    6.0000     1.05636245     0.23138777     0.06706990
    6 H                    1.0000     0.29678338    -4.14257642    -0.27511975
    7 H                    1.0000    -0.52274649    -3.46460667     1.19043941
    8 H                    1.0000     0.69597285    -1.98871973    -1.26378232
    9 H                    1.0000    -0.21182822    -0.85494461     1.41640313
   10 H                    1.0000    -1.73521144     2.46555797    -0.04240568
   11 H                    1.0000    -1.26837334     1.64512804     1.47726325
   12 O                    8.0000     2.15799895    -0.20548210    -0.15057545
   13 S                   16.0000    -1.57207454     0.06122217    -0.30803671
   14 S                   16.0000     0.64343187     1.97712477    -0.05723892

      Atomic Mass 
      ----------- 

      C                 12.000000
      H                  1.007825
      O                 15.994910
      S                 31.972070


 Effective nuclear repulsion energy (a.u.)     513.2201542143

            Nuclear Dipole moment (a.u.) 
            ----------------------------
        X                 Y               Z
 ---------------- ---------------- ----------------
     0.0000000000     0.0000000000     0.0000000000



                                Z-matrix (autoz)
                                -------- 

 Units are Angstrom for bonds and degrees for angles

      Type          Name      I     J     K     L     M      Value
      ----------- --------  ----- ----- ----- ----- ----- ----------
    1 Stretch                  1     2                       1.34358
    2 Stretch                  1     6                       1.07907
    3 Stretch                  1     7                       1.08982
    4 Stretch                  2     3                       1.51052
    5 Stretch                  2     8                       1.08502
    6 Stretch                  3     5                       1.50221
    7 Stretch                  3     9                       1.09751
    8 Stretch                  3    13                       1.80096
    9 Stretch                  4    10                       1.10191
   10 Stretch                  4    11                       1.08403
   11 Stretch                  4    13                       1.83396
   12 Stretch                  4    14                       1.82989
   13 Stretch                  5    12                       1.20492
   14 Stretch                  5    14                       1.79821
   15 Bend                     1     2     3               125.76036
   16 Bend                     1     2     8               119.16446
   17 Bend                     2     1     6               119.23043
   18 Bend                     2     1     7               126.76997
   19 Bend                     2     3     5               110.89913
   20 Bend                     2     3     9               109.42018
   21 Bend                     2     3    13               111.21992
   22 Bend                     3     2     8               113.87403
   23 Bend                     3     5    12               119.70335
   24 Bend                     3     5    14               116.72780
   25 Bend                     3    13     4                91.66508
   26 Bend                     4    14     5                92.62076
   27 Bend                     5     3     9               110.37390
   28 Bend                     5     3    13               106.95885
   29 Bend                     6     1     7               113.21302
   30 Bend                     9     3    13               107.90487
   31 Bend                    10     4    11               109.84744
   32 Bend                    10     4    13               108.76822
   33 Bend                    10     4    14               109.31740
   34 Bend                    11     4    13               108.31921
   35 Bend                    11     4    14               113.72595
   36 Bend                    12     5    14               123.32968
   37 Bend                    13     4    14               106.71254
   38 Torsion                  1     2     3     5         133.03228
   39 Torsion                  1     2     3     9          11.04275
   40 Torsion                  1     2     3    13        -108.07335
   41 Torsion                  2     3     5    12         -26.57462
   42 Torsion                  2     3     5    14         147.99420
   43 Torsion                  2     3    13     4        -165.10683
   44 Torsion                  3     2     1     6        -175.12382
   45 Torsion                  3     2     1     7          15.76229
   46 Torsion                  3     5    14     4           5.36951
   47 Torsion                  3    13     4    10         165.94654
   48 Torsion                  3    13     4    11         -74.69749
   49 Torsion                  3    13     4    14          48.11875
   50 Torsion                  4    13     3     5         -43.87721
   51 Torsion                  4    13     3     9          74.87490
   52 Torsion                  4    14     5    12         179.72261
   53 Torsion                  5     3     2     8         -34.25239
   54 Torsion                  5    14     4    10        -152.21714
   55 Torsion                  5    14     4    11          84.61794
   56 Torsion                  5    14     4    13         -34.75122
   57 Torsion                  6     1     2     8          -8.45006
   58 Torsion                  7     1     2     8        -177.56396
   59 Torsion                  8     2     3     9        -156.24191
   60 Torsion                  8     2     3    13          84.64198
   61 Torsion                  9     3     5    12          94.85622
   62 Torsion                  9     3     5    14         -90.57496
   63 Torsion                 12     5     3    13        -148.00716
   64 Torsion                 13     3     5    14          26.56166


            XYZ format geometry
            -------------------
    14
 geometry
 C                     0.01481122    -3.25282152     0.26638188
 C                     0.16715394    -2.05286658    -0.31852384
 C                    -0.07958417    -0.71408313     0.33603387
 C                    -1.10212770     1.68346135     0.40674080
 C                     1.05636245     0.23138777     0.06706990
 H                     0.29678338    -4.14257642    -0.27511975
 H                    -0.52274649    -3.46460667     1.19043941
 H                     0.69597285    -1.98871973    -1.26378232
 H                    -0.21182822    -0.85494461     1.41640313
 H                    -1.73521144     2.46555797    -0.04240568
 H                    -1.26837334     1.64512804     1.47726325
 O                     2.15799895    -0.20548210    -0.15057545
 S                    -1.57207454     0.06122217    -0.30803671
 S                     0.64343187     1.97712477    -0.05723892

 ==============================================================================
                                internuclear distances
 ------------------------------------------------------------------------------
       center one      |      center two      | atomic units |  angstroms
 ------------------------------------------------------------------------------
    2 C                |   1 C                |     2.53900  |     1.34358
    3 C                |   2 C                |     2.85447  |     1.51052
    5 C                |   3 C                |     2.83876  |     1.50221
    6 H                |   1 C                |     2.03915  |     1.07907
    7 H                |   1 C                |     2.05946  |     1.08982
    8 H                |   2 C                |     2.05040  |     1.08502
    9 H                |   3 C                |     2.07399  |     1.09751
   10 H                |   4 C                |     2.08231  |     1.10191
   11 H                |   4 C                |     2.04852  |     1.08403
   12 O                |   5 C                |     2.27697  |     1.20492
   13 S                |   3 C                |     3.40332  |     1.80096
   13 S                |   4 C                |     3.46569  |     1.83396
   14 S                |   4 C                |     3.45799  |     1.82989
   14 S                |   5 C                |     3.39813  |     1.79821
 ------------------------------------------------------------------------------
                         number of included internuclear distances:         14
 ==============================================================================



 ==============================================================================
                                 internuclear angles
 ------------------------------------------------------------------------------
        center 1       |       center 2       |       center 3       |  degrees
 ------------------------------------------------------------------------------
    2 C                |   1 C                |   6 H                |   119.23
    2 C                |   1 C                |   7 H                |   126.77
    6 H                |   1 C                |   7 H                |   113.21
    1 C                |   2 C                |   3 C                |   125.76
    1 C                |   2 C                |   8 H                |   119.16
    3 C                |   2 C                |   8 H                |   113.87
    2 C                |   3 C                |   5 C                |   110.90
    2 C                |   3 C                |   9 H                |   109.42
    2 C                |   3 C                |  13 S                |   111.22
    5 C                |   3 C                |   9 H                |   110.37
    5 C                |   3 C                |  13 S                |   106.96
    9 H                |   3 C                |  13 S                |   107.90
   10 H                |   4 C                |  11 H                |   109.85
   10 H                |   4 C                |  13 S                |   108.77
   10 H                |   4 C                |  14 S                |   109.32
   11 H                |   4 C                |  13 S                |   108.32
   11 H                |   4 C                |  14 S                |   113.73
   13 S                |   4 C                |  14 S                |   106.71
    3 C                |   5 C                |  12 O                |   119.70
    3 C                |   5 C                |  14 S                |   116.73
   12 O                |   5 C                |  14 S                |   123.33
    3 C                |  13 S                |   4 C                |    91.67
    4 C                |  14 S                |   5 C                |    92.62
 ------------------------------------------------------------------------------
                            number of included internuclear angles:         23
 ==============================================================================





 Summary of "ao basis" -> "" (cartesian)
 ------------------------------------------------------------------------------
       Tag                 Description            Shells   Functions and Types
 ---------------- ------------------------------  ------  ---------------------
 *                          cc-pvdz                   on all atoms 




                           NWChem Geometry Optimization
                           ----------------------------


  no constraints, skipping    0.0000000000000000     
 maximum gradient threshold         (gmax) =   0.000450
 rms gradient threshold             (grms) =   0.000300
 maximum cartesian step threshold   (xmax) =   0.001800
 rms cartesian step threshold       (xrms) =   0.001200
 fixed trust radius                (trust) =   0.300000
 maximum step size to saddle      (sadstp) =   0.100000
 energy precision                  (eprec) =   5.0D-06
 maximum number of steps          (nptopt) =   40
 initial hessian option           (inhess) =    0
 line search option               (linopt) =    1
 hessian update option            (modupd) =    1
 saddle point option              (modsad) =    0
 initial eigen-mode to follow     (moddir) =    0
 initial variable to follow       (vardir) =    0
 follow first negative mode     (firstneg) =    T
 apply conjugacy                    (opcg) =    F
 source of zmatrix                         =   autoz   


          -------------------
          Energy Minimization
          -------------------


 Names of Z-matrix variables 
    1              2              3              4              5         
    6              7              8              9             10         
   11             12             13             14             15         
   16             17             18             19             20         
   21             22             23             24             25         
   26             27             28             29             30         
   31             32             33             34             35         
   36             37             38             39             40         
   41             42             43             44             45         
   46             47             48             49             50         
   51             52             53             54             55         
   56             57             58             59             60         
   61             62             63             64         

 Variables with the same non-blank name are constrained to be equal


 Using diagonal initial Hessian 
 Scaling for Hessian diagonals: bonds = 1.00  angles = 0.25  torsions = 0.10

          --------
          Step   0
          --------


                         Geometry "geometry" -> "geometry"
                         ---------------------------------

 Output coordinates in angstroms (scale by  1.889725989 to convert to a.u.)

  No.       Tag          Charge          X              Y              Z
 ---- ---------------- ---------- -------------- -------------- --------------
    1 C                    6.0000     0.01481122    -3.25282152     0.26638188
    2 C                    6.0000     0.16715394    -2.05286658    -0.31852384
    3 C                    6.0000    -0.07958417    -0.71408313     0.33603387
    4 C                    6.0000    -1.10212770     1.68346135     0.40674080
    5 C                    6.0000     1.05636245     0.23138777     0.06706990
    6 H                    1.0000     0.29678338    -4.14257642    -0.27511975
    7 H                    1.0000    -0.52274649    -3.46460667     1.19043941
    8 H                    1.0000     0.69597285    -1.98871973    -1.26378232
    9 H                    1.0000    -0.21182822    -0.85494461     1.41640313
   10 H                    1.0000    -1.73521144     2.46555797    -0.04240568
   11 H                    1.0000    -1.26837334     1.64512804     1.47726325
   12 O                    8.0000     2.15799895    -0.20548210    -0.15057545
   13 S                   16.0000    -1.57207454     0.06122217    -0.30803671
   14 S                   16.0000     0.64343187     1.97712477    -0.05723892

      Atomic Mass 
      ----------- 

      C                 12.000000
      H                  1.007825
      O                 15.994910
      S                 31.972070


 Effective nuclear repulsion energy (a.u.)     513.2201542143

            Nuclear Dipole moment (a.u.) 
            ----------------------------
        X                 Y               Z
 ---------------- ---------------- ----------------
     0.0000000000     0.0000000000     0.0000000000


                                 NWChem DFT Module
                                 -----------------


                      Basis "ao basis" -> "ao basis" (cartesian)
                      -----
  C (Carbon)
  ----------
            Exponent  Coefficients 
       -------------- ---------------------------------------------------------
  1 S  6.66500000E+03  0.000692
  1 S  1.00000000E+03  0.005329
  1 S  2.28000000E+02  0.027077
  1 S  6.47100000E+01  0.101718
  1 S  2.10600000E+01  0.274740
  1 S  7.49500000E+00  0.448564
  1 S  2.79700000E+00  0.285074
  1 S  5.21500000E-01  0.015204

  2 S  6.66500000E+03 -0.000146
  2 S  1.00000000E+03 -0.001154
  2 S  2.28000000E+02 -0.005725
  2 S  6.47100000E+01 -0.023312
  2 S  2.10600000E+01 -0.063955
  2 S  7.49500000E+00 -0.149981
  2 S  2.79700000E+00 -0.127262
  2 S  5.21500000E-01  0.544529

  3 S  1.59600000E-01  1.000000

  4 P  9.43900000E+00  0.038109
  4 P  2.00200000E+00  0.209480
  4 P  5.45600000E-01  0.508557

  5 P  1.51700000E-01  1.000000

  6 D  5.50000000E-01  1.000000

  H (Hydrogen)
  ------------
            Exponent  Coefficients 
       -------------- ---------------------------------------------------------
  1 S  1.30100000E+01  0.019685
  1 S  1.96200000E+00  0.137977
  1 S  4.44600000E-01  0.478148

  2 S  1.22000000E-01  1.000000

  3 P  7.27000000E-01  1.000000

  O (Oxygen)
  ----------
            Exponent  Coefficients 
       -------------- ---------------------------------------------------------
  1 S  1.17200000E+04  0.000710
  1 S  1.75900000E+03  0.005470
  1 S  4.00800000E+02  0.027837
  1 S  1.13700000E+02  0.104800
  1 S  3.70300000E+01  0.283062
  1 S  1.32700000E+01  0.448719
  1 S  5.02500000E+00  0.270952
  1 S  1.01300000E+00  0.015458

  2 S  1.17200000E+04 -0.000160
  2 S  1.75900000E+03 -0.001263
  2 S  4.00800000E+02 -0.006267
  2 S  1.13700000E+02 -0.025716
  2 S  3.70300000E+01 -0.070924
  2 S  1.32700000E+01 -0.165411
  2 S  5.02500000E+00 -0.116955
  2 S  1.01300000E+00  0.557368

  3 S  3.02300000E-01  1.000000

  4 P  1.77000000E+01  0.043018
  4 P  3.85400000E+00  0.228913
  4 P  1.04600000E+00  0.508728

  5 P  2.75300000E-01  1.000000

  6 D  1.18500000E+00  1.000000

  S (Sulphur)
  -----------
            Exponent  Coefficients 
       -------------- ---------------------------------------------------------
  1 S  1.10800000E+05  0.000248
  1 S  1.66100000E+04  0.001920
  1 S  3.78100000E+03  0.009962
  1 S  1.07100000E+03  0.040298
  1 S  3.49800000E+02  0.128604
  1 S  1.26300000E+02  0.303480
  1 S  4.92600000E+01  0.421432
  1 S  2.01600000E+01  0.230781
  1 S  5.72000000E+00  0.017897
  1 S  2.18200000E+00 -0.002975
  1 S  4.32700000E-01  0.000850

  2 S  1.10800000E+05 -0.000069
  2 S  1.66100000E+04 -0.000528
  2 S  3.78100000E+03 -0.002797
  2 S  1.07100000E+03 -0.011265
  2 S  3.49800000E+02 -0.038883
  2 S  1.26300000E+02 -0.099503
  2 S  4.92600000E+01 -0.199740
  2 S  2.01600000E+01 -0.123360
  2 S  5.72000000E+00  0.513194
  2 S  2.18200000E+00  0.607120
  2 S  4.32700000E-01  0.039675

  3 S  1.10800000E+05  0.000020
  3 S  1.66100000E+04  0.000153
  3 S  3.78100000E+03  0.000810
  3 S  1.07100000E+03  0.003290
  3 S  3.49800000E+02  0.011297
  3 S  1.26300000E+02  0.029639
  3 S  4.92600000E+01  0.059985
  3 S  2.01600000E+01  0.041325
  3 S  5.72000000E+00 -0.207474
  3 S  2.18200000E+00 -0.392889
  3 S  4.32700000E-01  0.632840

  4 S  1.57000000E-01  1.000000

  5 P  3.99700000E+02  0.004475
  5 P  9.41900000E+01  0.034171
  5 P  2.97500000E+01  0.144250
  5 P  1.07700000E+01  0.353928
  5 P  4.11900000E+00  0.459085
  5 P  1.62500000E+00  0.206383
  5 P  4.72600000E-01  0.010214

  6 P  3.99700000E+02 -0.001163
  6 P  9.41900000E+01 -0.008657
  6 P  2.97500000E+01 -0.039089
  6 P  1.07700000E+01 -0.093463
  6 P  4.11900000E+00 -0.147994
  6 P  1.62500000E+00  0.030190
  6 P  4.72600000E-01  0.561573

  7 P  1.40700000E-01  1.000000

  8 D  4.79000000E-01  1.000000



 Summary of "ao basis" -> "ao basis" (cartesian)
 ------------------------------------------------------------------------------
       Tag                 Description            Shells   Functions and Types
 ---------------- ------------------------------  ------  ---------------------
 C                          cc-pvdz                  6       15   3s2p1d
 H                          cc-pvdz                  3        5   2s1p
 O                          cc-pvdz                  6       15   3s2p1d
 S                          cc-pvdz                  8       19   4s3p1d




 Summary of "ao basis" -> "ao basis" (cartesian)
 ------------------------------------------------------------------------------
       Tag                 Description            Shells   Functions and Types
 ---------------- ------------------------------  ------  ---------------------
 C                          cc-pvdz                  6       15   3s2p1d
 H                          cc-pvdz                  3        5   2s1p
 O                          cc-pvdz                  6       15   3s2p1d
 S                          cc-pvdz                  8       19   4s3p1d


  Caching 1-el integrals 

            General Information
            -------------------
          SCF calculation type: DFT
          Wavefunction type:  closed shell.
          No. of atoms     :    14
          No. of electrons :    76
           Alpha electrons :    38
            Beta electrons :    38
          Charge           :     0
          Spin multiplicity:     1
          Use of symmetry is: off; symmetry adaption is: off
          Maximum number of iterations:  50
          AO basis - number of functions:   158
                     number of shells:    70
          Convergence on energy requested:  1.00D-06
          Convergence on density requested:  1.00D-05
          Convergence on gradient requested:  5.00D-04

              XC Information
              --------------
                         B3LYP Method XC Potential
                     Hartree-Fock (Exact) Exchange  0.200          
                        Slater Exchange Functional  0.800 local    
                    Becke 1988 Exchange Functional  0.720 non-local
              Lee-Yang-Parr Correlation Functional  0.810          
                  VWN I RPA Correlation Functional  0.190 local    

             Grid Information
             ----------------
          Grid used for XC integration:  medium    
          Radial quadrature: Mura-Knowles        
          Angular quadrature: Lebedev. 
          Tag              B.-S. Rad. Rad. Pts. Rad. Cut. Ang. Pts.
          ---              ---------- --------- --------- ---------
          C                   0.70       49          14.0       434
          H                   0.35       45          15.0       434
          O                   0.60       49          12.0       434
          S                   1.00       88          14.0       590
          Grid pruning is: on 
          Number of quadrature shells:   740
          Spatial weights used:  Erf1

          Convergence Information
          -----------------------
          Convergence aids based upon iterative change in 
          total energy or number of iterations. 
          Levelshifting, if invoked, occurs when the 
          HOMO/LUMO gap drops below (HL_TOL):  1.00D-02
          DIIS, if invoked, will attempt to extrapolate 
          using up to (NFOCK): 10 stored Fock matrices.

                    Damping( 0%)  Levelshifting(0.5)       DIIS
                  --------------- ------------------- ---------------
          dE  on:    start            ASAP                start   
          dE off:    2 iters         50 iters            50 iters 


      Screening Tolerance Information
      -------------------------------
          Density screening/tol_rho:  1.00D-10
          AO Gaussian exp screening on grid/accAOfunc:  14
          CD Gaussian exp screening on grid/accCDfunc:  20
          XC Gaussian exp screening on grid/accXCfunc:  20
          Schwarz screening/accCoul:  1.00D-08


      Superposition of Atomic Density Guess
      -------------------------------------

 Sum of atomic energies:       -1061.04521933

      Non-variational initial energy
      ------------------------------

 Total energy =   -1065.322052
 1-e energy   =   -2479.816797
 2-e energy   =     901.274590
 HOMO         =      -0.257655
 LUMO         =      -0.008212

   Time after variat. SCF:      1.6
   Time prior to 1st pass:      1.6
 Shared filesystem for scratch_dir 

 Integral file          = ./xyz93.aoints.0
 Record size in doubles =    65536    No. of integs per rec  =    43688
 Max. records in memory =     1222    Max. records in file   = 22918553
 No. of bits per label  =        8    No. of bits per value  =       64


 #quartets = 2.447D+06 #integrals = 5.496D+07 #direct =  0.0% #cached =100.0%


File balance: exchanges=     1  moved=    31  time=   0.0

 Shared filesystem for scratch_dir 

 Grid_pts file          = ./xyz93.gridpts.0
 Record size in doubles =  12289        No. of grid_pts per rec  =   3070
 Max. records in memory =     80        Max. recs in file   = 122222342


           Memory utilization after 1st SCF pass: 
           Heap Space remaining (MW):      350.02           350022609
          Stack Space remaining (MW):      431.13           431125532

   convergence    iter        energy       DeltaE   RMS-Dens  Diis-err    time
 ---------------- ----- ----------------- --------- --------- ---------  ------
 d= 0,ls=0.0,diis     1  -1065.5714479001 -1.58D+03  1.63D-02  1.83D+00     6.8
 d= 0,ls=0.0,diis     2  -1064.9553364289  6.16D-01  1.22D-02  7.94D+00     7.7
 d= 0,ls=0.0,diis     3  -1065.7507579606 -7.95D-01  3.11D-03  1.77D-01     8.6
 d= 0,ls=0.0,diis     4  -1065.7572428698 -6.48D-03  1.73D-03  9.08D-02     9.6
 d= 0,ls=0.0,diis     5  -1065.7683687625 -1.11D-02  3.26D-04  2.44D-03    10.6
  Resetting Diis
 d= 0,ls=0.0,diis     6  -1065.7686495137 -2.81D-04  1.12D-04  5.94D-04    11.6
 d= 0,ls=0.0,diis     7  -1065.7687221121 -7.26D-05  7.93D-05  4.33D-05    12.6
 d= 0,ls=0.0,diis     8  -1065.7687077561  1.44D-05  5.17D-05  1.63D-04    13.6
 d= 0,ls=0.0,diis     9  -1065.7687275899 -1.98D-05  7.52D-06  2.46D-06    14.6
 d= 0,ls=0.0,diis    10  -1065.7687278199 -2.30D-07  2.23D-06  2.09D-07    15.6


         Total DFT energy =    -1065.768727819916
      One electron energy =    -2484.580870486348
           Coulomb energy =      994.937276101989
    Exchange-Corr. energy =      -89.345287649875
 Nuclear repulsion energy =      513.220154214317

 Numeric. integr. density =       75.999993720853

     Total iterative time =     14.0s



                       DFT Final Molecular Orbital Analysis
                       ------------------------------------

 Vector    1  Occ=2.000000D+00  E=-8.891357D+01
              MO Center=  6.4D-01,  2.0D+00, -5.7D-02, r^2= 3.6D-03
   Bfn.  Coefficient  Atom+Function         Bfn.  Coefficient  Atom+Function  
  ----- ------------  ---------------      ----- ------------  ---------------
   140      1.000048  14 S  s         

 Vector    2  Occ=2.000000D+00  E=-8.890020D+01
              MO Center= -1.6D+00,  6.1D-02, -3.1D-01, r^2= 3.6D-03
   Bfn.  Coefficient  Atom+Function         Bfn.  Coefficient  Atom+Function  
  ----- ------------  ---------------      ----- ------------  ---------------
   121      1.000040  13 S  s         

 Vector    3  Occ=2.000000D+00  E=-1.915460D+01
              MO Center=  2.2D+00, -2.1D-01, -1.5D-01, r^2= 1.5D-02
   Bfn.  Coefficient  Atom+Function         Bfn.  Coefficient  Atom+Function  
  ----- ------------  ---------------      ----- ------------  ---------------
   106      1.003640  12 O  s         

 Vector    4  Occ=2.000000D+00  E=-1.031218D+01
              MO Center=  1.1D+00,  2.3D-01,  6.7D-02, r^2= 2.8D-02
   Bfn.  Coefficient  Atom+Function         Bfn.  Coefficient  Atom+Function  
  ----- ------------  ---------------      ----- ------------  ---------------
    61      1.003721   5 C  s         

 Vector    5  Occ=2.000000D+00  E=-1.026525D+01
              MO Center= -1.1D+00,  1.7D+00,  4.1D-01, r^2= 2.8D-02
   Bfn.  Coefficient  Atom+Function         Bfn.  Coefficient  Atom+Function  
  ----- ------------  ---------------      ----- ------------  ---------------
    46      1.003641   4 C  s         

 Vector    6  Occ=2.000000D+00  E=-1.024863D+01
              MO Center= -8.0D-02, -7.1D-01,  3.4D-01, r^2= 2.8D-02
   Bfn.  Coefficient  Atom+Function         Bfn.  Coefficient  Atom+Function  
  ----- ------------  ---------------      ----- ------------  ---------------
    31      1.003753   3 C  s         

 Vector    7  Occ=2.000000D+00  E=-1.021495D+01
              MO Center=  1.7D-01, -2.1D+00, -3.2D-01, r^2= 3.0D-02
   Bfn.  Coefficient  Atom+Function         Bfn.  Coefficient  Atom+Function  
  ----- ------------  ---------------      ----- ------------  ---------------
    16      1.003091   2 C  s                 1      0.035465   1 C  s         

 Vector    8  Occ=2.000000D+00  E=-1.020304D+01
              MO Center=  1.5D-02, -3.3D+00,  2.7D-01, r^2= 3.0D-02
   Bfn.  Coefficient  Atom+Function         Bfn.  Coefficient  Atom+Function  
  ----- ------------  ---------------      ----- ------------  ---------------
     1      1.003131   1 C  s                16     -0.034980   2 C  s         

 Vector    9  Occ=2.000000D+00  E=-7.969742D+00
              MO Center=  6.4D-01,  2.0D+00, -5.7D-02, r^2= 7.7D-02
   Bfn.  Coefficient  Atom+Function         Bfn.  Coefficient  Atom+Function  
  ----- ------------  ---------------      ----- ------------  ---------------
   141      1.011497  14 S  s               142      0.028004  14 S  s         

 Vector   10  Occ=2.000000D+00  E=-7.956233D+00
              MO Center= -1.6D+00,  6.2D-02, -3.1D-01, r^2= 7.7D-02
   Bfn.  Coefficient  Atom+Function         Bfn.  Coefficient  Atom+Function  
  ----- ------------  ---------------      ----- ------------  ---------------
   122      1.011631  13 S  s               123      0.028142  13 S  s         

 Vector   11  Occ=2.000000D+00  E=-5.933741D+00
              MO Center=  6.4D-01,  2.0D+00, -5.7D-02, r^2= 6.9D-02
   Bfn.  Coefficient  Atom+Function         Bfn.  Coefficient  Atom+Function  
  ----- ------------  ---------------      ----- ------------  ---------------
   144      0.860947  14 S  px              145     -0.481341  14 S  py        
   146     -0.171566  14 S  pz        

 Vector   12  Occ=2.000000D+00  E=-5.930641D+00
              MO Center=  6.4D-01,  2.0D+00, -5.8D-02, r^2= 6.9D-02
   Bfn.  Coefficient  Atom+Function         Bfn.  Coefficient  Atom+Function  
  ----- ------------  ---------------      ----- ------------  ---------------
   145      0.863560  14 S  py              144      0.429119  14 S  px        
   146     -0.268886  14 S  pz        

 Vector   13  Occ=2.000000D+00  E=-5.924647D+00
              MO Center=  6.4D-01,  2.0D+00, -5.7D-02, r^2= 6.8D-02
   Bfn.  Coefficient  Atom+Function         Bfn.  Coefficient  Atom+Function  
  ----- ------------  ---------------      ----- ------------  ---------------
   146      0.948717  14 S  pz              144      0.277218  14 S  px        
   145      0.157677  14 S  py        

 Vector   14  Occ=2.000000D+00  E=-5.921055D+00
              MO Center= -1.6D+00,  6.1D-02, -3.1D-01, r^2= 6.9D-02
   Bfn.  Coefficient  Atom+Function         Bfn.  Coefficient  Atom+Function  
  ----- ------------  ---------------      ----- ------------  ---------------
   126      0.938836  13 S  py              125     -0.343410  13 S  px        
   127      0.056396  13 S  pz        

 Vector   15  Occ=2.000000D+00  E=-5.917652D+00
              MO Center= -1.6D+00,  6.1D-02, -3.1D-01, r^2= 6.9D-02
   Bfn.  Coefficient  Atom+Function         Bfn.  Coefficient  Atom+Function  
  ----- ------------  ---------------      ----- ------------  ---------------
   125      0.804595  13 S  px              127      0.534935  13 S  pz        
   126      0.262047  13 S  py        

 Vector   16  Occ=2.000000D+00  E=-5.909787D+00
              MO Center= -1.6D+00,  6.1D-02, -3.1D-01, r^2= 6.8D-02
   Bfn.  Coefficient  Atom+Function         Bfn.  Coefficient  Atom+Function  
  ----- ------------  ---------------      ----- ------------  ---------------
   127      0.844104  13 S  pz              125     -0.486776  13 S  px        
   126     -0.228709  13 S  py        

 Vector   17  Occ=2.000000D+00  E=-1.070629D+00
              MO Center=  1.8D+00, -7.1D-02, -8.0D-02, r^2= 5.7D-01
   Bfn.  Coefficient  Atom+Function         Bfn.  Coefficient  Atom+Function  
  ----- ------------  ---------------      ----- ------------  ---------------
   107      0.393428  12 O  s               108      0.357110  12 O  s         
    62      0.236047   5 C  s                64      0.168574   5 C  px        
   109     -0.149786  12 O  px               63      0.127501   5 C  s         
    65     -0.069595   5 C  py              110      0.058144  12 O  py        
    32      0.046472   3 C  s               142      0.037198  14 S  s         

 Vector   18  Occ=2.000000D+00  E=-8.743149D-01
              MO Center= -3.5D-01,  3.2D-01,  1.1D-01, r^2= 2.6D+00
   Bfn.  Coefficient  Atom+Function         Bfn.  Coefficient  Atom+Function  
  ----- ------------  ---------------      ----- ------------  ---------------
   123      0.234309  13 S  s                32      0.208953   3 C  s         
   142      0.182458  14 S  s                47      0.176385   4 C  s         
    33      0.153537   3 C  s               124      0.149334  13 S  s         
    64     -0.127325   5 C  px              143      0.119975  14 S  s         
    48      0.116306   4 C  s               107     -0.100883  12 O  s         

 Vector   19  Occ=2.000000D+00  E=-8.079872D-01
              MO Center= -1.4D-02, -6.1D-01,  7.6D-02, r^2= 4.8D+00
   Bfn.  Coefficient  Atom+Function         Bfn.  Coefficient  Atom+Function  
  ----- ------------  ---------------      ----- ------------  ---------------
    17      0.240445   2 C  s               142     -0.226109  14 S  s         
    32      0.173380   3 C  s                 2      0.171336   1 C  s         
   143     -0.170982  14 S  s                18      0.168596   2 C  s         
    47     -0.166292   4 C  s                33      0.139025   3 C  s         
    48     -0.116404   4 C  s                65     -0.093772   5 C  py        

 Vector   20  Occ=2.000000D+00  E=-7.455022D-01
              MO Center= -1.2D-01, -6.3D-01,  1.6D-02, r^2= 5.5D+00
   Bfn.  Coefficient  Atom+Function         Bfn.  Coefficient  Atom+Function  
  ----- ------------  ---------------      ----- ------------  ---------------
   142      0.279943  14 S  s               123     -0.246020  13 S  s         
   143      0.236320  14 S  s                 2      0.219984   1 C  s         
   124     -0.201778  13 S  s                17      0.150344   2 C  s         
     3      0.145160   1 C  s                18      0.119085   2 C  s         
    20     -0.118630   2 C  py               32     -0.118887   3 C  s         

 Vector   21  Occ=2.000000D+00  E=-7.219660D-01
              MO Center= -2.6D-01,  2.5D-01,  1.7D-01, r^2= 4.5D+00
   Bfn.  Coefficient  Atom+Function         Bfn.  Coefficient  Atom+Function  
  ----- ------------  ---------------      ----- ------------  ---------------
    47      0.217367   4 C  s               123      0.183801  13 S  s         
    62     -0.176988   5 C  s               124      0.176846  13 S  s         
   142     -0.167243  14 S  s                48      0.164242   4 C  s         
    32     -0.152724   3 C  s                 2      0.140301   1 C  s         
    64      0.139792   5 C  px               63     -0.136527   5 C  s         

 Vector   22  Occ=2.000000D+00  E=-6.290576D-01
              MO Center= -5.7D-01,  1.1D-01,  1.7D-01, r^2= 5.3D+00
   Bfn.  Coefficient  Atom+Function         Bfn.  Coefficient  Atom+Function  
  ----- ------------  ---------------      ----- ------------  ---------------
   124      0.296732  13 S  s               123      0.288883  13 S  s         
    47     -0.204342   4 C  s                48     -0.186609   4 C  s         
    96     -0.152908  10 H  s               101     -0.148839  11 H  s         
    65      0.144414   5 C  py                2      0.132514   1 C  s         
    34     -0.127449   3 C  px               20     -0.115043   2 C  py        

 Vector   23  Occ=2.000000D+00  E=-5.882674D-01
              MO Center=  1.1D-01, -1.4D+00,  7.5D-02, r^2= 4.9D+00
   Bfn.  Coefficient  Atom+Function         Bfn.  Coefficient  Atom+Function  
  ----- ------------  ---------------      ----- ------------  ---------------
    17      0.202248   2 C  s               143      0.193072  14 S  s         
     2     -0.172730   1 C  s                86      0.167453   8 H  s         
    81     -0.162331   7 H  s                35     -0.160457   3 C  py        
   142      0.157874  14 S  s                18      0.146555   2 C  s         
    76     -0.143929   6 H  s                 3     -0.138741   1 C  s         

 Vector   24  Occ=2.000000D+00  E=-5.486439D-01
              MO Center=  2.9D-01, -5.9D-01,  1.7D-01, r^2= 3.8D+00
   Bfn.  Coefficient  Atom+Function         Bfn.  Coefficient  Atom+Function  
  ----- ------------  ---------------      ----- ------------  ---------------
    91     -0.217815   9 H  s                62      0.202202   5 C  s         
   143     -0.192708  14 S  s                36     -0.173479   3 C  pz        
    63      0.173247   5 C  s                34      0.160432   3 C  px        
    86      0.155724   8 H  s                21     -0.151266   2 C  pz        
   108     -0.146711  12 O  s               142     -0.144322  14 S  s         

 Vector   25  Occ=2.000000D+00  E=-4.967534D-01
              MO Center=  2.2D-01, -7.9D-02,  2.3D-01, r^2= 5.8D+00
   Bfn.  Coefficient  Atom+Function         Bfn.  Coefficient  Atom+Function  
  ----- ------------  ---------------      ----- ------------  ---------------
    65      0.201255   5 C  py              110      0.191607  12 O  py        
    51      0.185076   4 C  pz                5      0.181427   1 C  py        
   101      0.165334  11 H  s               147      0.151755  14 S  px        
    36      0.142682   3 C  pz               64      0.131560   5 C  px        
   148     -0.129825  14 S  py              143     -0.120204  14 S  s         

 Vector   26  Occ=2.000000D+00  E=-4.832566D-01
              MO Center=  2.8D-01, -1.5D-01,  4.6D-02, r^2= 6.2D+00
   Bfn.  Coefficient  Atom+Function         Bfn.  Coefficient  Atom+Function  
  ----- ------------  ---------------      ----- ------------  ---------------
   109      0.240178  12 O  px              108      0.212200  12 O  s         
    96     -0.189737  10 H  s                51      0.160882   4 C  pz        
    64     -0.161256   5 C  px               35      0.152626   3 C  py        
    49      0.142786   4 C  px               38      0.139583   3 C  py        
   110     -0.138367  12 O  py               21     -0.136606   2 C  pz        

 Vector   27  Occ=2.000000D+00  E=-4.648446D-01
              MO Center= -3.8D-01, -2.9D-01,  4.0D-01, r^2= 5.3D+00
   Bfn.  Coefficient  Atom+Function         Bfn.  Coefficient  Atom+Function  
  ----- ------------  ---------------      ----- ------------  ---------------
    51      0.276732   4 C  pz              101      0.233052  11 H  s         
    36     -0.218635   3 C  pz               20      0.197638   2 C  py        
     5     -0.151772   1 C  py               81      0.147489   7 H  s         
   129     -0.146907  13 S  py               66     -0.142941   5 C  pz        
    91     -0.137227   9 H  s                 6      0.131684   1 C  pz        

 Vector   28  Occ=2.000000D+00  E=-4.415345D-01
              MO Center=  4.3D-01, -1.3D+00,  5.8D-03, r^2= 6.2D+00
   Bfn.  Coefficient  Atom+Function         Bfn.  Coefficient  Atom+Function  
  ----- ------------  ---------------      ----- ------------  ---------------
     5      0.238696   1 C  py               76     -0.229712   6 H  s         
   109      0.197363  12 O  px               64     -0.196092   5 C  px        
    21      0.170067   2 C  pz              108      0.153818  12 O  s         
   148     -0.150251  14 S  py                6      0.145574   1 C  pz        
   143     -0.140442  14 S  s               111     -0.128719  12 O  pz        

 Vector   29  Occ=2.000000D+00  E=-4.352958D-01
              MO Center=  2.6D-01,  5.4D-01,  4.6D-02, r^2= 5.8D+00
   Bfn.  Coefficient  Atom+Function         Bfn.  Coefficient  Atom+Function  
  ----- ------------  ---------------      ----- ------------  ---------------
   109      0.256585  12 O  px               96      0.244646  10 H  s         
    65      0.236089   5 C  py               49     -0.208228   4 C  px        
    50      0.150842   4 C  py              112      0.149706  12 O  px        
   111     -0.141050  12 O  pz               33      0.139213   3 C  s         
   124     -0.137187  13 S  s               148     -0.136510  14 S  py        

 Vector   30  Occ=2.000000D+00  E=-4.134602D-01
              MO Center=  1.1D-01, -5.3D-01,  4.4D-02, r^2= 5.4D+00
   Bfn.  Coefficient  Atom+Function         Bfn.  Coefficient  Atom+Function  
  ----- ------------  ---------------      ----- ------------  ---------------
    20      0.195921   2 C  py              128     -0.188126  13 S  px        
    34      0.180991   3 C  px                6      0.178188   1 C  pz        
    66      0.173362   5 C  pz              109      0.174158  12 O  px        
   143      0.174153  14 S  s               147      0.170612  14 S  px        
    81      0.153562   7 H  s                49     -0.137167   4 C  px        

 Vector   31  Occ=2.000000D+00  E=-3.997035D-01
              MO Center=  3.6D-01,  1.2D-02,  9.8D-02, r^2= 4.3D+00
   Bfn.  Coefficient  Atom+Function         Bfn.  Coefficient  Atom+Function  
  ----- ------------  ---------------      ----- ------------  ---------------
   111      0.281236  12 O  pz               66      0.244633   5 C  pz        
    50      0.219171   4 C  py              129     -0.196453  13 S  py        
    91     -0.173616   9 H  s               114      0.171213  12 O  pz        
    36     -0.166860   3 C  pz              109      0.154202  12 O  px        
    69      0.136246   5 C  pz               96      0.123529  10 H  s         

 Vector   32  Occ=2.000000D+00  E=-3.923457D-01
              MO Center=  3.4D-01,  3.0D-01, -3.7D-02, r^2= 5.4D+00
   Bfn.  Coefficient  Atom+Function         Bfn.  Coefficient  Atom+Function  
  ----- ------------  ---------------      ----- ------------  ---------------
   143      0.264261  14 S  s               111     -0.197353  12 O  pz        
   110     -0.190090  12 O  py              147      0.187067  14 S  px        
    49     -0.179902   4 C  px              124      0.173033  13 S  s         
    51      0.158455   4 C  pz               64     -0.157136   5 C  px        
    20     -0.137876   2 C  py              148      0.138075  14 S  py        

 Vector   33  Occ=2.000000D+00  E=-3.621757D-01
              MO Center=  3.2D-02, -2.0D+00, -2.2D-03, r^2= 4.2D+00
   Bfn.  Coefficient  Atom+Function         Bfn.  Coefficient  Atom+Function  
  ----- ------------  ---------------      ----- ------------  ---------------
    21      0.242423   2 C  pz               35     -0.242125   3 C  py        
    86     -0.239806   8 H  s                76      0.236976   6 H  s         
    81     -0.210150   7 H  s                 6     -0.184463   1 C  pz        
    20      0.162938   2 C  py               33      0.146359   3 C  s         
    82     -0.146137   7 H  s                87     -0.146321   8 H  s         

 Vector   34  Occ=2.000000D+00  E=-3.379968D-01
              MO Center= -5.2D-01,  6.5D-01, -1.7D-01, r^2= 4.3D+00
   Bfn.  Coefficient  Atom+Function         Bfn.  Coefficient  Atom+Function  
  ----- ------------  ---------------      ----- ------------  ---------------
   124      0.270782  13 S  s               128     -0.257006  13 S  px        
   130     -0.205047  13 S  pz              131     -0.195415  13 S  px        
   147     -0.188136  14 S  px               49      0.185860   4 C  px        
   143     -0.183713  14 S  s               148     -0.173645  14 S  py        
   111     -0.169649  12 O  pz               50      0.164659   4 C  py        

 Vector   35  Occ=2.000000D+00  E=-2.809924D-01
              MO Center=  5.0D-01, -1.6D+00, -3.5D-02, r^2= 4.4D+00
   Bfn.  Coefficient  Atom+Function         Bfn.  Coefficient  Atom+Function  
  ----- ------------  ---------------      ----- ------------  ---------------
   110      0.317163  12 O  py               19      0.306298   2 C  px        
     4      0.280599   1 C  px              113      0.212107  12 O  py        
     7      0.195254   1 C  px               33      0.195834   3 C  s         
    22      0.171854   2 C  px                6      0.160200   1 C  pz        
   148      0.149023  14 S  py              151      0.130774  14 S  py        

 Vector   36  Occ=2.000000D+00  E=-2.726242D-01
              MO Center=  6.1D-01, -6.3D-01, -6.4D-02, r^2= 5.1D+00
   Bfn.  Coefficient  Atom+Function         Bfn.  Coefficient  Atom+Function  
  ----- ------------  ---------------      ----- ------------  ---------------
   110      0.346047  12 O  py              113      0.248591  12 O  py        
   148      0.219732  14 S  py                4     -0.209164   1 C  px        
   151      0.191993  14 S  py               19     -0.187681   2 C  px        
    34      0.185520   3 C  px               33      0.175759   3 C  s         
   130     -0.170180  13 S  pz              133     -0.156858  13 S  pz        

 Vector   37  Occ=2.000000D+00  E=-2.672470D-01
              MO Center=  4.5D-01,  1.5D+00, -2.8D-02, r^2= 3.1D+00
   Bfn.  Coefficient  Atom+Function         Bfn.  Coefficient  Atom+Function  
  ----- ------------  ---------------      ----- ------------  ---------------
   149      0.465014  14 S  pz              152      0.438543  14 S  pz        
   111     -0.217234  12 O  pz              130      0.162927  13 S  pz        
   114     -0.160699  12 O  pz              101     -0.155415  11 H  s         
   133      0.138615  13 S  pz               51     -0.121682   4 C  pz        
   102     -0.113454  11 H  s               124     -0.105757  13 S  s         

 Vector   38  Occ=2.000000D+00  E=-2.399614D-01
              MO Center= -8.9D-01,  2.6D-01, -1.6D-01, r^2= 3.5D+00
   Bfn.  Coefficient  Atom+Function         Bfn.  Coefficient  Atom+Function  
  ----- ------------  ---------------      ----- ------------  ---------------
   130      0.391354  13 S  pz              133      0.392066  13 S  pz        
   131     -0.282001  13 S  px              128     -0.275725  13 S  px        
   147     -0.171826  14 S  px              110      0.169881  12 O  py        
   152     -0.144228  14 S  pz              149     -0.143163  14 S  pz        
   150     -0.143575  14 S  px              113      0.123254  12 O  py        

 Vector   39  Occ=0.000000D+00  E=-3.927033D-02
              MO Center=  7.1D-01,  2.4D-01,  2.9D-02, r^2= 3.6D+00
   Bfn.  Coefficient  Atom+Function         Bfn.  Coefficient  Atom+Function  
  ----- ------------  ---------------      ----- ------------  ---------------
    66      0.460515   5 C  pz               69      0.437406   5 C  pz        
    48      0.431975   4 C  s               132     -0.373273  13 S  py        
   114     -0.362200  12 O  pz              111     -0.356839  12 O  pz        
   152     -0.258680  14 S  pz               92     -0.236577   9 H  s         
    18      0.230869   2 C  s                53     -0.182173   4 C  py        

 Vector   40  Occ=0.000000D+00  E=-2.248245D-02
              MO Center= -7.5D-03, -1.3D+00,  4.4D-02, r^2= 6.3D+00
   Bfn.  Coefficient  Atom+Function         Bfn.  Coefficient  Atom+Function  
  ----- ------------  ---------------      ----- ------------  ---------------
    48     -0.424091   4 C  s                 7      0.417856   1 C  px        
    22     -0.382455   2 C  px              150     -0.360604  14 S  px        
    63      0.316107   5 C  s                19     -0.313258   2 C  px        
     4      0.308754   1 C  px              124     -0.247292  13 S  s         
     9      0.226471   1 C  pz              151      0.217663  14 S  py        

 Vector   41  Occ=0.000000D+00  E=-3.243078D-03
              MO Center= -1.2D-01,  3.0D-01,  1.7D-02, r^2= 6.5D+00
   Bfn.  Coefficient  Atom+Function         Bfn.  Coefficient  Atom+Function  
  ----- ------------  ---------------      ----- ------------  ---------------
    48      1.093935   4 C  s               150      0.506750  14 S  px        
   132     -0.457070  13 S  py               63     -0.334985   5 C  s         
    97     -0.291286  10 H  s               102     -0.289998  11 H  s         
    22     -0.278521   2 C  px                7      0.266712   1 C  px        
    68     -0.224902   5 C  py               92      0.222287   9 H  s         

 Vector   42  Occ=0.000000D+00  E= 3.994767D-02
              MO Center= -6.3D-01,  1.4D-01,  2.7D-01, r^2= 5.7D+00
   Bfn.  Coefficient  Atom+Function         Bfn.  Coefficient  Atom+Function  
  ----- ------------  ---------------      ----- ------------  ---------------
    33      1.156371   3 C  s                92     -0.739326   9 H  s         
   132      0.567857  13 S  py              131     -0.469747  13 S  px        
    63     -0.444245   5 C  s               150      0.417041  14 S  px        
    52      0.401306   4 C  px               37     -0.374073   3 C  px        
    82     -0.306856   7 H  s               102     -0.308320  11 H  s         

 Vector   43  Occ=0.000000D+00  E= 5.933014D-02
              MO Center= -7.0D-01,  9.5D-01,  8.8D-01, r^2= 6.5D+00
   Bfn.  Coefficient  Atom+Function         Bfn.  Coefficient  Atom+Function  
  ----- ------------  ---------------      ----- ------------  ---------------
    48      1.224023   4 C  s               102     -1.114259  11 H  s         
    92     -0.857219   9 H  s                97     -0.747273  10 H  s         
    63      0.622018   5 C  s                39      0.516229   3 C  pz        
   151      0.413160  14 S  py               54      0.399125   4 C  pz        
    87      0.397484   8 H  s                52     -0.372570   4 C  px        

 Vector   44  Occ=0.000000D+00  E= 6.952569D-02
              MO Center= -3.1D-01,  5.6D-01,  2.1D-01, r^2= 6.5D+00
   Bfn.  Coefficient  Atom+Function         Bfn.  Coefficient  Atom+Function  
  ----- ------------  ---------------      ----- ------------  ---------------
   143      0.864264  14 S  s                33      0.723473   3 C  s         
   124     -0.718300  13 S  s                63     -0.630011   5 C  s         
    52     -0.580134   4 C  px               53     -0.581965   4 C  py        
    92     -0.535581   9 H  s               151     -0.440054  14 S  py        
     3      0.436539   1 C  s                77     -0.430525   6 H  s         

 Vector   45  Occ=0.000000D+00  E= 8.211923D-02
              MO Center= -9.3D-01,  8.8D-01, -2.4D-01, r^2= 9.6D+00
   Bfn.  Coefficient  Atom+Function         Bfn.  Coefficient  Atom+Function  
  ----- ------------  ---------------      ----- ------------  ---------------
    97      1.526691  10 H  s                53     -0.795510   4 C  py        
    77      0.654201   6 H  s                52      0.597283   4 C  px        
    87      0.507473   8 H  s                 3     -0.492119   1 C  s         
   143     -0.487108  14 S  s               124     -0.454214  13 S  s         
   151      0.415931  14 S  py               63      0.350633   5 C  s         

 Vector   46  Occ=0.000000D+00  E= 8.875486D-02
              MO Center= -2.5D-01, -2.4D+00,  2.7D-01, r^2= 9.3D+00
   Bfn.  Coefficient  Atom+Function         Bfn.  Coefficient  Atom+Function  
  ----- ------------  ---------------      ----- ------------  ---------------
     3      1.626007   1 C  s                82     -1.144949   7 H  s         
    77     -1.009910   6 H  s                18      0.532232   2 C  s         
    33     -0.534523   3 C  s                97      0.468061  10 H  s         
     8     -0.449239   1 C  py              143     -0.449822  14 S  s         
   124      0.437069  13 S  s                63      0.431891   5 C  s         

 Vector   47  Occ=0.000000D+00  E= 9.764111D-02
              MO Center=  3.6D-02, -1.4D+00, -1.7D-02, r^2= 8.8D+00
   Bfn.  Coefficient  Atom+Function         Bfn.  Coefficient  Atom+Function  
  ----- ------------  ---------------      ----- ------------  ---------------
    87     -1.089785   8 H  s                82      1.023130   7 H  s         
    18      0.859686   2 C  s                48      0.739461   4 C  s         
   143     -0.613501  14 S  s                77     -0.583175   6 H  s         
     9     -0.542885   1 C  pz               63      0.534700   5 C  s         
   151      0.526947  14 S  py              124     -0.518347  13 S  s         

 Vector   48  Occ=0.000000D+00  E= 1.062522D-01
              MO Center= -7.9D-01,  3.3D-01,  3.7D-01, r^2= 7.7D+00
   Bfn.  Coefficient  Atom+Function         Bfn.  Coefficient  Atom+Function  
  ----- ------------  ---------------      ----- ------------  ---------------
   102      1.092307  11 H  s               124     -0.948611  13 S  s         
    54     -0.897633   4 C  pz               97     -0.840348  10 H  s         
    37     -0.619689   3 C  px              131     -0.606195  13 S  px        
    82     -0.597378   7 H  s                 3      0.503112   1 C  s         
    87      0.487585   8 H  s                63      0.476585   5 C  s         

 Vector   49  Occ=0.000000D+00  E= 1.315534D-01
              MO Center= -4.2D-01, -3.6D-01,  1.0D+00, r^2= 7.2D+00
   Bfn.  Coefficient  Atom+Function         Bfn.  Coefficient  Atom+Function  
  ----- ------------  ---------------      ----- ------------  ---------------
    92      1.509705   9 H  s               102     -1.259860  11 H  s         
    39     -0.913747   3 C  pz                3      0.800644   1 C  s         
    18     -0.803812   2 C  s                54      0.660662   4 C  pz        
    87      0.630507   8 H  s                48      0.546041   4 C  s         
    82     -0.523622   7 H  s                63     -0.428086   5 C  s         

 Vector   50  Occ=0.000000D+00  E= 1.491522D-01
              MO Center=  2.2D-01, -2.7D+00, -3.5D-01, r^2= 7.5D+00
   Bfn.  Coefficient  Atom+Function         Bfn.  Coefficient  Atom+Function  
  ----- ------------  ---------------      ----- ------------  ---------------
    77      1.558274   6 H  s                18      1.463988   2 C  s         
    87     -1.282298   8 H  s                82     -1.060152   7 H  s         
     9      0.854601   1 C  pz                7     -0.518474   1 C  px        
    38      0.457905   3 C  py               24     -0.453535   2 C  pz        
    97     -0.425449  10 H  s                 3     -0.402156   1 C  s         

 Vector   51  Occ=0.000000D+00  E= 2.235975D-01
              MO Center= -2.0D-01, -1.2D+00,  6.1D-02, r^2= 6.8D+00
   Bfn.  Coefficient  Atom+Function         Bfn.  Coefficient  Atom+Function  
  ----- ------------  ---------------      ----- ------------  ---------------
    38      1.892920   3 C  py               18      1.751944   2 C  s         
    24      1.406315   2 C  pz               33     -1.204393   3 C  s         
    87      1.160473   8 H  s                63     -1.073510   5 C  s         
    23      1.062306   2 C  py               82      0.963335   7 H  s         
    77     -0.913291   6 H  s                 8     -0.818232   1 C  py        

 Vector   52  Occ=0.000000D+00  E= 2.388831D-01
              MO Center=  2.8D-01, -5.6D-02,  9.5D-02, r^2= 5.1D+00
   Bfn.  Coefficient  Atom+Function         Bfn.  Coefficient  Atom+Function  
  ----- ------------  ---------------      ----- ------------  ---------------
    33      2.158164   3 C  s                67      1.663385   5 C  px        
    63     -1.457876   5 C  s                37      1.308992   3 C  px        
    38      1.133456   3 C  py               68      1.003795   5 C  py        
   150     -0.589673  14 S  px              108     -0.573534  12 O  s         
     3     -0.398788   1 C  s                69     -0.364755   5 C  pz        

 Vector   53  Occ=0.000000D+00  E= 2.710421D-01
              MO Center=  6.6D-01, -3.0D-01, -1.3D-01, r^2= 5.8D+00
   Bfn.  Coefficient  Atom+Function         Bfn.  Coefficient  Atom+Function  
  ----- ------------  ---------------      ----- ------------  ---------------
    18      1.890265   2 C  s               108     -1.579604  12 O  s         
    68     -1.533195   5 C  py               33     -1.433558   3 C  s         
    67      1.278111   5 C  px               63      1.254905   5 C  s         
   143      1.221570  14 S  s                37     -1.144850   3 C  px        
    38      0.993551   3 C  py              151     -0.751451  14 S  py        

 Vector   54  Occ=0.000000D+00  E= 3.126806D-01
              MO Center=  1.0D-02, -2.6D+00,  2.5D-01, r^2= 5.0D+00
   Bfn.  Coefficient  Atom+Function         Bfn.  Coefficient  Atom+Function  
  ----- ------------  ---------------      ----- ------------  ---------------
     3      3.535150   1 C  s                18     -3.171380   2 C  s         
    23      3.139414   2 C  py                8      2.897212   1 C  py        
     9     -1.494299   1 C  pz               24     -1.456772   2 C  pz        
    39      1.184375   3 C  pz               92     -1.046677   9 H  s         
    82      0.942333   7 H  s                87     -0.795037   8 H  s         

 Vector   55  Occ=0.000000D+00  E= 3.706769D-01
              MO Center= -3.8D-01, -2.5D-01,  1.4D-01, r^2= 6.7D+00
   Bfn.  Coefficient  Atom+Function         Bfn.  Coefficient  Atom+Function  
  ----- ------------  ---------------      ----- ------------  ---------------
    23      1.132209   2 C  py               33     -1.128306   3 C  s         
    63      0.537118   5 C  s                67     -0.529652   5 C  px        
    18      0.491576   2 C  s                39      0.472797   3 C  pz        
    54      0.473496   4 C  pz              131      0.414689  13 S  px        
    53      0.400836   4 C  py               92     -0.386267   9 H  s         

 Vector   56  Occ=0.000000D+00  E= 3.791828D-01
              MO Center= -3.5D-01, -5.3D-02,  1.7D-01, r^2= 7.3D+00
   Bfn.  Coefficient  Atom+Function         Bfn.  Coefficient  Atom+Function  
  ----- ------------  ---------------      ----- ------------  ---------------
    33      0.720182   3 C  s                 8      0.632689   1 C  py        
   124     -0.548497  13 S  s                18     -0.505820   2 C  s         
   133     -0.415066  13 S  pz               67      0.384696   5 C  px        
   101     -0.357247  11 H  s                24     -0.341463   2 C  pz        
    23     -0.338803   2 C  py              108     -0.321272  12 O  s         

 Vector   57  Occ=0.000000D+00  E= 3.965328D-01
              MO Center= -3.0D-01,  8.3D-01,  7.1D-02, r^2= 6.1D+00
   Bfn.  Coefficient  Atom+Function         Bfn.  Coefficient  Atom+Function  
  ----- ------------  ---------------      ----- ------------  ---------------
    63     -0.536841   5 C  s                18      0.532234   2 C  s         
    23     -0.439724   2 C  py              155     -0.440805  14 S  dxz       
   142      0.424929  14 S  s               143     -0.395375  14 S  s         
    52     -0.382547   4 C  px               54      0.380513   4 C  pz        
     3     -0.366022   1 C  s               151     -0.345873  14 S  py        

 Vector   58  Occ=0.000000D+00  E= 4.020039D-01
              MO Center= -6.5D-01,  1.2D+00,  1.8D-01, r^2= 5.5D+00
   Bfn.  Coefficient  Atom+Function         Bfn.  Coefficient  Atom+Function  
  ----- ------------  ---------------      ----- ------------  ---------------
    52      0.720064   4 C  px               68      0.649753   5 C  py        
    53      0.637475   4 C  py              151      0.473352  14 S  py        
    33     -0.452484   3 C  s                23      0.389670   2 C  py        
   148     -0.384855  14 S  py               49     -0.378268   4 C  px        
   143     -0.333991  14 S  s                50     -0.326612   4 C  py        

 Vector   59  Occ=0.000000D+00  E= 4.141055D-01
              MO Center= -2.2D-01,  2.0D-01,  4.1D-02, r^2= 5.4D+00
   Bfn.  Coefficient  Atom+Function         Bfn.  Coefficient  Atom+Function  
  ----- ------------  ---------------      ----- ------------  ---------------
    37      1.032214   3 C  px              143      1.028386  14 S  s         
   124      1.005118  13 S  s                23     -0.665316   2 C  py        
   142     -0.605930  14 S  s               141     -0.450862  14 S  s         
   123     -0.389405  13 S  s                39     -0.348845   3 C  pz        
    22     -0.323399   2 C  px               34     -0.321607   3 C  px        

 Vector   60  Occ=0.000000D+00  E= 4.222822D-01
              MO Center= -4.5D-01, -6.3D-01, -8.6D-02, r^2= 6.7D+00
   Bfn.  Coefficient  Atom+Function         Bfn.  Coefficient  Atom+Function  
  ----- ------------  ---------------      ----- ------------  ---------------
    18      0.773756   2 C  s               124      0.493871  13 S  s         
    37     -0.488985   3 C  px                8     -0.485995   1 C  py        
   123     -0.472870  13 S  s               150     -0.466610  14 S  px        
   132     -0.407101  13 S  py              147      0.402620  14 S  px        
   143      0.398035  14 S  s               129      0.389330  13 S  py        

 Vector   61  Occ=0.000000D+00  E= 4.383385D-01
              MO Center= -4.1D-02,  7.5D-01, -2.2D-01, r^2= 6.7D+00
   Bfn.  Coefficient  Atom+Function         Bfn.  Coefficient  Atom+Function  
  ----- ------------  ---------------      ----- ------------  ---------------
   151      1.077473  14 S  py              143     -0.858184  14 S  s         
    48      0.717729   4 C  s                18      0.629541   2 C  s         
   148     -0.615269  14 S  py               68      0.563084   5 C  py        
   150      0.530030  14 S  px               53     -0.488700   4 C  py        
   135     -0.399245  13 S  dxy             152     -0.327816  14 S  pz        

 Vector   62  Occ=0.000000D+00  E= 4.498991D-01
              MO Center= -6.6D-01, -3.4D-01, -3.7D-01, r^2= 7.2D+00
   Bfn.  Coefficient  Atom+Function         Bfn.  Coefficient  Atom+Function  
  ----- ------------  ---------------      ----- ------------  ---------------
   131     -1.059995  13 S  px               33      0.980676   3 C  s         
   128      0.627417  13 S  px              151      0.478339  14 S  py        
   124     -0.437463  13 S  s                63      0.420842   5 C  s         
   133     -0.409994  13 S  pz               87     -0.399305   8 H  s         
    18     -0.396275   2 C  s                86      0.377665   8 H  s         

 Vector   63  Occ=0.000000D+00  E= 4.720927D-01
              MO Center=  1.3D-01, -4.7D-01,  6.1D-02, r^2= 6.9D+00
   Bfn.  Coefficient  Atom+Function         Bfn.  Coefficient  Atom+Function  
  ----- ------------  ---------------      ----- ------------  ---------------
    33      0.694530   3 C  s                39     -0.687470   3 C  pz        
    68      0.578873   5 C  py              133      0.538630  13 S  pz        
   124     -0.516422  13 S  s                18     -0.502287   2 C  s         
     7     -0.485617   1 C  px              130     -0.482321  13 S  pz        
     4      0.398774   1 C  px               69      0.380180   5 C  pz        

 Vector   64  Occ=0.000000D+00  E= 4.781702D-01
              MO Center= -1.1D-01,  3.7D-02,  1.1D-01, r^2= 5.6D+00
   Bfn.  Coefficient  Atom+Function         Bfn.  Coefficient  Atom+Function  
  ----- ------------  ---------------      ----- ------------  ---------------
   124     -0.900422  13 S  s                23      0.870782   2 C  py        
     3      0.633370   1 C  s               157     -0.556422  14 S  dyz       
    69      0.537645   5 C  pz               53     -0.492588   4 C  py        
    66     -0.433540   5 C  pz               33     -0.423036   3 C  s         
   132     -0.411353  13 S  py              123      0.396113  13 S  s         

 Vector   65  Occ=0.000000D+00  E= 4.839568D-01
              MO Center= -2.4D-01, -6.7D-01, -4.9D-02, r^2= 7.0D+00
   Bfn.  Coefficient  Atom+Function         Bfn.  Coefficient  Atom+Function  
  ----- ------------  ---------------      ----- ------------  ---------------
    63      0.851129   5 C  s                24      0.711736   2 C  pz        
    18      0.614343   2 C  s                33     -0.604999   3 C  s         
    68     -0.599862   5 C  py               37     -0.542062   3 C  px        
   130     -0.487622  13 S  pz              108     -0.480450  12 O  s         
   133      0.471923  13 S  pz              143     -0.452392  14 S  s         

 Vector   66  Occ=0.000000D+00  E= 4.870979D-01
              MO Center=  3.6D-01,  1.3D+00, -1.7D-01, r^2= 4.9D+00
   Bfn.  Coefficient  Atom+Function         Bfn.  Coefficient  Atom+Function  
  ----- ------------  ---------------      ----- ------------  ---------------
   152      0.923215  14 S  pz              149     -0.753055  14 S  pz        
   143     -0.485216  14 S  s                54     -0.475530   4 C  pz        
   157      0.438233  14 S  dyz             151      0.417001  14 S  py        
    38      0.354819   3 C  py              150      0.346343  14 S  px        
    63      0.335992   5 C  s                48      0.309071   4 C  s         

 Vector   67  Occ=0.000000D+00  E= 5.072126D-01
              MO Center= -6.8D-02,  1.0D-01,  5.2D-02, r^2= 7.4D+00
   Bfn.  Coefficient  Atom+Function         Bfn.  Coefficient  Atom+Function  
  ----- ------------  ---------------      ----- ------------  ---------------
   150      0.590108  14 S  px               37      0.568764   3 C  px        
    69     -0.525496   5 C  pz              143     -0.502495  14 S  s         
    39      0.488803   3 C  pz               48      0.455789   4 C  s         
    24     -0.447129   2 C  pz                7     -0.444321   1 C  px        
    63     -0.424179   5 C  s                52      0.399364   4 C  px        

 Vector   68  Occ=0.000000D+00  E= 5.141824D-01
              MO Center= -3.8D-01,  8.6D-03,  2.7D-01, r^2= 6.4D+00
   Bfn.  Coefficient  Atom+Function         Bfn.  Coefficient  Atom+Function  
  ----- ------------  ---------------      ----- ------------  ---------------
   143      1.151271  14 S  s               124      0.719749  13 S  s         
    48     -0.603099   4 C  s               142     -0.525651  14 S  s         
   132      0.494125  13 S  py               33     -0.480998   3 C  s         
    38     -0.400847   3 C  py              141     -0.401400  14 S  s         
   152      0.387503  14 S  pz               81     -0.378179   7 H  s         

 Vector   69  Occ=0.000000D+00  E= 5.197681D-01
              MO Center= -5.0D-01, -3.2D-01,  1.1D-02, r^2= 6.0D+00
   Bfn.  Coefficient  Atom+Function         Bfn.  Coefficient  Atom+Function  
  ----- ------------  ---------------      ----- ------------  ---------------
    68      0.878899   5 C  py              124      0.836493  13 S  s         
    37      0.819918   3 C  px               33      0.656163   3 C  s         
   131      0.644848  13 S  px              150     -0.560439  14 S  px        
     3      0.489490   1 C  s                24     -0.485974   2 C  pz        
     9      0.481269   1 C  pz               87     -0.482320   8 H  s         

 Vector   70  Occ=0.000000D+00  E= 5.297212D-01
              MO Center=  1.3D-03,  3.2D-01,  1.3D-01, r^2= 7.3D+00
   Bfn.  Coefficient  Atom+Function         Bfn.  Coefficient  Atom+Function  
  ----- ------------  ---------------      ----- ------------  ---------------
   150     -0.936305  14 S  px               37      0.892705   3 C  px        
   151      0.849472  14 S  py               63      0.795665   5 C  s         
   124      0.667159  13 S  s               133      0.581178  13 S  pz        
   143     -0.505101  14 S  s                68      0.501335   5 C  py        
   147      0.489200  14 S  px              108     -0.439258  12 O  s         

 Vector   71  Occ=0.000000D+00  E= 5.423546D-01
              MO Center= -6.2D-01, -1.4D+00,  1.7D-02, r^2= 7.2D+00
   Bfn.  Coefficient  Atom+Function         Bfn.  Coefficient  Atom+Function  
  ----- ------------  ---------------      ----- ------------  ---------------
   132      0.708680  13 S  py               33      0.614584   3 C  s         
    54      0.575685   4 C  pz                9     -0.562588   1 C  pz        
   150     -0.516014  14 S  px               48     -0.504023   4 C  s         
   129     -0.478029  13 S  py               82      0.451473   7 H  s         
     7     -0.415501   1 C  px                4      0.385249   1 C  px        

 Vector   72  Occ=0.000000D+00  E= 5.613177D-01
              MO Center= -4.2D-02, -4.8D-01,  1.2D-01, r^2= 6.5D+00
   Bfn.  Coefficient  Atom+Function         Bfn.  Coefficient  Atom+Function  
  ----- ------------  ---------------      ----- ------------  ---------------
    63      1.523504   5 C  s                33     -1.234301   3 C  s         
    68     -1.083469   5 C  py               37     -0.983997   3 C  px        
   143      0.772964  14 S  s               124      0.709977  13 S  s         
    38     -0.691914   3 C  py                7     -0.589426   1 C  px        
   131      0.572904  13 S  px               18      0.540764   2 C  s         

 Vector   73  Occ=0.000000D+00  E= 5.756837D-01
              MO Center= -2.5D-01, -3.0D-01,  4.2D-01, r^2= 5.6D+00
   Bfn.  Coefficient  Atom+Function         Bfn.  Coefficient  Atom+Function  
  ----- ------------  ---------------      ----- ------------  ---------------
   124      1.224182  13 S  s                33     -0.821934   3 C  s         
    37      0.821085   3 C  px               92      0.669326   9 H  s         
    38      0.525623   3 C  py              123     -0.474378  13 S  s         
   133      0.455716  13 S  pz               91     -0.433335   9 H  s         
    63     -0.422053   5 C  s                22     -0.418303   2 C  px        

 Vector   74  Occ=0.000000D+00  E= 6.010551D-01
              MO Center=  4.8D-01, -2.4D-01, -2.4D-02, r^2= 5.4D+00
   Bfn.  Coefficient  Atom+Function         Bfn.  Coefficient  Atom+Function  
  ----- ------------  ---------------      ----- ------------  ---------------
    67      1.185215   5 C  px               63     -1.077387   5 C  s         
    38      0.869941   3 C  py               24      0.697297   2 C  pz        
    52      0.694259   4 C  px               64     -0.574494   5 C  px        
    39     -0.512833   3 C  pz                7     -0.476364   1 C  px        
    23      0.437375   2 C  py              124      0.434669  13 S  s         

 Vector   75  Occ=0.000000D+00  E= 6.220398D-01
              MO Center= -1.0D+00,  1.4D+00,  4.7D-01, r^2= 4.6D+00
   Bfn.  Coefficient  Atom+Function         Bfn.  Coefficient  Atom+Function  
  ----- ------------  ---------------      ----- ------------  ---------------
    97      1.480509  10 H  s               102     -1.426304  11 H  s         
    54      1.314480   4 C  pz               53     -1.264173   4 C  py        
    63      0.746303   5 C  s               143      0.685994  14 S  s         
    51     -0.616787   4 C  pz               50      0.482271   4 C  py        
   132     -0.461534  13 S  py               87     -0.445443   8 H  s         

 Vector   76  Occ=0.000000D+00  E= 6.334256D-01
              MO Center= -1.6D-01, -1.5D+00,  7.5D-02, r^2= 7.4D+00
   Bfn.  Coefficient  Atom+Function         Bfn.  Coefficient  Atom+Function  
  ----- ------------  ---------------      ----- ------------  ---------------
     9      1.276068   1 C  pz               82     -1.164464   7 H  s         
    77      1.110019   6 H  s                18     -1.021761   2 C  s         
    24     -0.761780   2 C  pz                8      0.717629   1 C  py        
   132      0.716413  13 S  py               38     -0.682967   3 C  py        
    54      0.614476   4 C  pz              124      0.595627  13 S  s         

 Vector   77  Occ=0.000000D+00  E= 6.349805D-01
              MO Center= -5.6D-01,  3.9D-01,  1.5D-01, r^2= 6.4D+00
   Bfn.  Coefficient  Atom+Function         Bfn.  Coefficient  Atom+Function  
  ----- ------------  ---------------      ----- ------------  ---------------
   124      2.270807  13 S  s               143     -1.397036  14 S  s         
    53      0.930494   4 C  py              123     -0.852454  13 S  s         
    52      0.843126   4 C  px              132      0.785445  13 S  py        
    38     -0.678468   3 C  py              122     -0.679191  13 S  s         
    33      0.660054   3 C  s                24     -0.640135   2 C  pz        

 Vector   78  Occ=0.000000D+00  E= 6.541446D-01
              MO Center=  8.4D-02, -2.7D-01,  3.3D-01, r^2= 6.0D+00
   Bfn.  Coefficient  Atom+Function         Bfn.  Coefficient  Atom+Function  
  ----- ------------  ---------------      ----- ------------  ---------------
    33      1.495573   3 C  s                67      1.340606   5 C  px        
    92     -1.284991   9 H  s                39      1.168152   3 C  pz        
   143      1.147083  14 S  s                52     -0.984322   4 C  px        
   150     -0.904725  14 S  px               22     -0.787985   2 C  px        
    38      0.734232   3 C  py               37      0.619410   3 C  px        

 Vector   79  Occ=0.000000D+00  E= 6.599053D-01
              MO Center=  9.0D-02, -1.9D+00,  1.9D-02, r^2= 6.5D+00
   Bfn.  Coefficient  Atom+Function         Bfn.  Coefficient  Atom+Function  
  ----- ------------  ---------------      ----- ------------  ---------------
    24      1.292919   2 C  pz               87      1.151279   8 H  s         
     9     -1.071748   1 C  pz               77     -1.071929   6 H  s         
    82      0.996639   7 H  s                22     -0.945376   2 C  px        
    38      0.924208   3 C  py                7      0.763390   1 C  px        
    92      0.724059   9 H  s               102     -0.694849  11 H  s         

 Vector   80  Occ=0.000000D+00  E= 6.685535D-01
              MO Center= -9.4D-01,  1.1D+00,  5.1D-01, r^2= 6.7D+00
   Bfn.  Coefficient  Atom+Function         Bfn.  Coefficient  Atom+Function  
  ----- ------------  ---------------      ----- ------------  ---------------
    48      1.409250   4 C  s               102     -1.295827  11 H  s         
    97     -1.214597  10 H  s                52     -1.107540   4 C  px        
    92      0.876743   9 H  s                53      0.838304   4 C  py        
   143      0.826714  14 S  s                54      0.713970   4 C  pz        
    39     -0.634259   3 C  pz               24      0.626272   2 C  pz        

 Vector   81  Occ=0.000000D+00  E= 6.814274D-01
              MO Center=  5.2D-01,  9.7D-03,  6.5D-02, r^2= 6.6D+00
   Bfn.  Coefficient  Atom+Function         Bfn.  Coefficient  Atom+Function  
  ----- ------------  ---------------      ----- ------------  ---------------
    63      1.616013   5 C  s               124     -1.485673  13 S  s         
    67      1.402372   5 C  px              108     -1.242193  12 O  s         
    33      0.975864   3 C  s               150     -0.927730  14 S  px        
    39     -0.896702   3 C  pz               37     -0.792104   3 C  px        
    53     -0.686308   4 C  py              133     -0.656906  13 S  pz        

 Vector   82  Occ=0.000000D+00  E= 6.991595D-01
              MO Center=  3.4D-01, -1.2D+00, -4.2D-01, r^2= 5.6D+00
   Bfn.  Coefficient  Atom+Function         Bfn.  Coefficient  Atom+Function  
  ----- ------------  ---------------      ----- ------------  ---------------
[...]
          31     0.08813     0.02721    -0.48414    -0.02512     0.12622     0.54062
          32     0.01822     0.01670    -0.38251    -0.00863     0.12494     0.45222
          33     0.01575     0.00375    -0.07964    -0.00270     0.01785     0.08622
          34     0.01485     0.00130    -0.00019     0.01012    -0.00045     0.00236
          35    -0.02948    -0.00251     0.00662     0.00462     0.00632     0.00873
          36     0.00351     0.00194     0.00219    -0.00295     0.00738    -0.00305
          37     0.00578     0.00042     0.00826    -0.00536     0.00098     0.00703
          38     0.00020    -0.00160     0.00063     0.00048    -0.00467    -0.00376
          39    -0.00072     0.00009     0.01441    -0.01196     0.00668    -0.00715
          40    -0.00390    -0.00093     0.00394    -0.00029    -0.00097    -0.00397
          41    -0.01404    -0.00084     0.00954    -0.00307     0.00575     0.01118
          42     0.00340     0.00091    -0.01235     0.00097     0.00264     0.00417

                   31          32          33          34          35          36
 
 P.Frequency     1256.35     1314.64     1433.22     1435.17     1713.92     1805.68
 
           1     0.00915    -0.01805     0.00516    -0.00157    -0.01060     0.00068
           2    -0.03628    -0.03877     0.02753    -0.00993    -0.16173    -0.00714
           3    -0.03438     0.08743    -0.02956     0.00934     0.07489     0.00147
           4    -0.01207     0.01630    -0.00193     0.00070     0.00677    -0.00231
           5     0.04025     0.00144     0.09430    -0.02745     0.18997     0.00934
           6     0.05179    -0.07216    -0.00702     0.00329    -0.06039    -0.00080
           7     0.03819     0.00763    -0.00227    -0.00172    -0.00037     0.00641
           8     0.11254     0.03465    -0.04413     0.01369    -0.02977    -0.00240
           9     0.00853    -0.01311    -0.00488     0.00011    -0.00041    -0.00400
          10     0.00355     0.00051     0.01359     0.04792    -0.00052     0.00485
          11    -0.00572    -0.00163    -0.01400    -0.04998     0.00022    -0.00074
          12     0.00161     0.00130    -0.00826    -0.02474    -0.00018     0.00068
          13    -0.01573    -0.00519     0.00348    -0.00029     0.00849    -0.21429
          14    -0.03473    -0.00592     0.00196     0.00218    -0.00647     0.05565
          15    -0.03306    -0.00581     0.00307    -0.00185    -0.00156     0.02770
          16    -0.01109    -0.01147    -0.10157     0.02998     0.04300     0.00421
          17    -0.15760    -0.03753    -0.33734     0.10079    -0.01711    -0.00508
          18     0.15750     0.06266     0.51317    -0.15574    -0.19331    -0.00191
          19    -0.01093     0.00365     0.03540    -0.01055    -0.03487    -0.00581
          20     0.06904    -0.40270    -0.53947     0.16480     0.17511     0.00750
          21    -0.01892     0.06555    -0.05795     0.01844     0.12584     0.00248
          22    -0.01392    -0.01476     0.01276    -0.00402     0.02831    -0.00471
          23    -0.16833     0.76320    -0.22795     0.07515    -0.14828    -0.01639
          24     0.03456    -0.03363    -0.02653     0.00928    -0.10425    -0.00060
          25    -0.19855    -0.01709     0.00997     0.00330    -0.00295     0.01043
          26    -0.74873    -0.19153     0.14276    -0.05552     0.07242     0.01844
          27    -0.14702    -0.05358     0.01972    -0.01042     0.01125     0.00122
          28     0.00363    -0.00124    -0.08283    -0.27743     0.00053     0.00802
          29    -0.01675    -0.01054     0.07158     0.21225     0.00044    -0.00390
          30    -0.01081    -0.00764     0.16768     0.53894    -0.00090    -0.00483
          31     0.01018     0.00701    -0.12325    -0.39957     0.00170    -0.00565
          32     0.00531     0.00417     0.14761     0.49002    -0.00248    -0.00615
          33     0.00080     0.00185    -0.05262    -0.17172     0.00069    -0.00162
          34     0.00195     0.00278    -0.00178     0.00186    -0.00646     0.14915
          35     0.00528     0.00017    -0.00031    -0.00120     0.00206    -0.04781
          36     0.00444     0.00052    -0.00020     0.00010     0.00077    -0.01872
          37    -0.00270    -0.00072     0.00130     0.00083     0.00068     0.00182
          38    -0.00212    -0.00033    -0.00080    -0.00214    -0.00070    -0.00070
          39    -0.00212    -0.00081     0.00039    -0.00120     0.00009     0.00031
          40     0.00001    -0.00005     0.00070     0.00209     0.00002     0.00018
          41     0.00299     0.00014    -0.00026    -0.00155     0.00006     0.00426
          42     0.00147     0.00033    -0.00055    -0.00087    -0.00004    -0.00018

                   37          38          39          40          41          42
 
 P.Frequency     3028.68     3062.40     3134.76     3140.67     3169.99     3239.54
 
           1    -0.00017     0.00002    -0.00002     0.00589     0.00397    -0.01908
           2    -0.00031    -0.00001    -0.00029     0.05467     0.00577     0.04878
           3     0.00095    -0.00006     0.00013    -0.03646    -0.01883     0.07657
           4    -0.00059     0.00003    -0.00015     0.00207    -0.01732    -0.00293
           5     0.00124     0.00000    -0.00003    -0.00690    -0.01049    -0.00150
           6     0.00245    -0.00026     0.00061    -0.00815     0.07880     0.01327
           7     0.00795    -0.00048    -0.00012     0.00017     0.00001     0.00011
           8     0.01050    -0.00040     0.00050     0.00003    -0.00163    -0.00056
           9    -0.07837     0.00396    -0.00077    -0.00133     0.00265     0.00032
          10     0.00135     0.03577     0.02305     0.00013    -0.00012     0.00003
          11    -0.00127    -0.03411    -0.04271    -0.00025     0.00033    -0.00000
          12    -0.00292    -0.04372     0.07711     0.00051    -0.00074    -0.00004
          13     0.00027    -0.00014    -0.00020     0.00003    -0.00080    -0.00020
          14     0.00008     0.00014     0.00006     0.00005     0.00022     0.00001
          15    -0.00094     0.00014    -0.00013     0.00001     0.00016    -0.00003
          16    -0.00095     0.00008    -0.00051     0.09331    -0.00351     0.10866
          17     0.00317    -0.00014     0.00337    -0.50853     0.02190    -0.62310
          18     0.00435    -0.00013     0.00213    -0.32465     0.01199    -0.37220
          19     0.00184    -0.00009     0.00067    -0.15816    -0.04028     0.12192
          20    -0.00224     0.00014     0.00019    -0.05567    -0.01707     0.05866
          21    -0.01009     0.00044    -0.00333     0.72030     0.18380    -0.55830
          22     0.00722    -0.00090     0.00179    -0.03020     0.20221     0.02991
          23     0.00373    -0.00024     0.00047    -0.00651     0.06321     0.00936
          24    -0.03541     0.00377    -0.00791     0.13446    -0.90891    -0.13374
          25    -0.08960     0.00555    -0.00193    -0.00170     0.00319     0.00083
          26    -0.14726     0.00579    -0.00036    -0.00048     0.00444    -0.00149
          27     0.93977    -0.04700     0.00911     0.01608    -0.03266    -0.00844
          28    -0.00723    -0.22805    -0.38799    -0.00236     0.00249    -0.00004
          29     0.01160     0.33147     0.55667     0.00346    -0.00297     0.00008
          30    -0.00984    -0.29431    -0.45570    -0.00279     0.00290    -0.00004
          31    -0.01117    -0.18969     0.11964     0.00079    -0.00129    -0.00005
          32     0.00676     0.06889    -0.05416    -0.00021     0.00005    -0.00006
          33     0.04455     0.80541    -0.45592    -0.00301     0.00500     0.00031
          34    -0.00022    -0.00003    -0.00004    -0.00003     0.00036     0.00008
          35     0.00007     0.00001     0.00005     0.00003    -0.00017    -0.00002
          36     0.00001    -0.00003     0.00006     0.00002    -0.00011    -0.00001
          37    -0.00011    -0.00014     0.00005     0.00000     0.00002     0.00000
          38    -0.00000     0.00000    -0.00006     0.00002     0.00002    -0.00000
          39     0.00018     0.00012    -0.00009     0.00001     0.00003    -0.00000
          40     0.00007    -0.00003    -0.00004    -0.00000     0.00001     0.00000
          41     0.00004     0.00010     0.00001     0.00001     0.00005     0.00002
          42    -0.00002     0.00013    -0.00009    -0.00000     0.00000     0.00000



 ----------------------------------------------------------------------------
 Normal Eigenvalue ||    Projected Derivative Dipole Moments (debye/angs)
  Mode   [cm**-1]  ||      [d/dqX]             [d/dqY]           [d/dqZ]
 ------ ---------- || ------------------ ------------------ -----------------
    1       -0.000 ||      -0.024               0.044            -0.050
    2       -0.000 ||       0.007               0.064             0.020
    3        0.000 ||      -0.017               0.053            -0.035
    4        0.000 ||      -0.001               0.024             0.000
    5        0.000 ||      -0.017              -0.036            -0.040
    6        0.000 ||       0.056               0.008             0.125
    7       59.147 ||       0.050               0.086            -0.186
    8       73.713 ||      -0.072              -0.036            -0.017
    9      138.935 ||       0.058               0.097            -0.150
   10      228.409 ||      -0.095              -0.230            -0.153
   11      272.302 ||      -0.090               0.005             0.180
   12      339.337 ||       0.088              -0.332             0.010
   13      390.700 ||       0.286              -0.134            -0.070
   14      406.207 ||      -0.089               0.185             0.022
   15      464.550 ||      -0.081               0.028            -0.053
   16      553.887 ||       0.108              -0.412             0.176
   17      602.446 ||      -0.338               0.285            -0.006
   18      686.956 ||      -0.077              -0.030             0.114
   19      723.609 ||      -0.358              -0.069            -0.008
   20      749.242 ||      -0.129               0.659             0.113
   21      830.346 ||       0.312               0.502             0.219
   22      861.329 ||       0.187               0.542            -0.207
   23      927.428 ||      -0.284               0.948            -0.030
   24      958.404 ||      -0.787              -0.022            -0.173
   25     1005.426 ||      -0.032               0.934            -0.034
   26     1016.068 ||       0.438               0.079             0.103
   27     1088.535 ||       0.200              -0.033             0.013
   28     1144.384 ||      -0.235              -0.202            -0.190
   29     1174.904 ||       0.008              -0.630             0.137
   30     1202.393 ||      -0.386              -0.454            -0.106
   31     1256.355 ||      -0.157              -0.062            -0.044
   32     1314.637 ||      -0.101              -0.139             0.169
   33     1433.218 ||       0.057              -0.198             0.229
   34     1435.165 ||      -0.020               0.104            -0.000
   35     1713.915 ||       0.179               0.176            -0.110
   36     1805.676 ||      -2.193               1.402             0.224
   37     3028.681 ||      -0.223               0.028            -0.373
   38     3062.399 ||       0.350              -0.347            -0.368
   39     3134.763 ||      -0.025               0.036             0.140
   40     3140.671 ||       0.037               0.236            -0.256
   41     3169.988 ||      -0.044               0.118             0.193
   42     3239.543 ||      -0.084               0.254             0.384
 ----------------------------------------------------------------------------



  
  
 ----------------------------------------------------------------------------
 Normal Eigenvalue ||           Projected Infra Red Intensities
  Mode   [cm**-1]  || [atomic units] [(debye/angs)**2] [(KM/mol)] [arbitrary]
 ------ ---------- || -------------- ----------------- ---------- -----------
    1       -0.000 ||    0.000218           0.005         0.213       0.150
    2       -0.000 ||    0.000198           0.005         0.193       0.137
    3        0.000 ||    0.000189           0.004         0.185       0.131
    4        0.000 ||    0.000024           0.001         0.024       0.017
    5        0.000 ||    0.000137           0.003         0.134       0.095
    6        0.000 ||    0.000815           0.019         0.794       0.561
    7       59.147 ||    0.001934           0.045         1.885       1.332
    8       73.713 ||    0.000294           0.007         0.287       0.203
    9      138.935 ||    0.001522           0.035         1.484       1.048
   10      228.409 ||    0.003701           0.085         3.608       2.549
   11      272.302 ||    0.001761           0.041         1.717       1.213
   12      339.337 ||    0.005119           0.118         4.991       3.526
   13      390.700 ||    0.004544           0.105         4.430       3.130
   14      406.207 ||    0.001851           0.043         1.805       1.275
   15      464.550 ||    0.000436           0.010         0.425       0.300
   16      553.887 ||    0.009209           0.212         8.978       6.344
   17      602.446 ||    0.008461           0.195         8.248       5.828
   18      686.956 ||    0.000867           0.020         0.845       0.597
   19      723.609 ||    0.005768           0.133         5.623       3.973
   20      749.242 ||    0.020091           0.464        19.586      13.839
   21      830.346 ||    0.017209           0.397        16.776      11.854
   22      861.329 ||    0.016100           0.371        15.696      11.090
   23      927.428 ||    0.042453           0.979        41.386      29.243
   24      958.404 ||    0.028199           0.651        27.490      19.424
   25     1005.426 ||    0.037872           0.874        36.919      26.087
   26     1016.068 ||    0.009057           0.209         8.829       6.239
   27     1088.535 ||    0.001780           0.041         1.735       1.226
   28     1144.384 ||    0.005739           0.132         5.594       3.953
   29     1174.904 ||    0.018026           0.416        17.572      12.416
   30     1202.393 ||    0.015908           0.367        15.508      10.958
   31     1256.355 ||    0.001319           0.030         1.286       0.909
   32     1314.637 ||    0.002522           0.058         2.458       1.737
   33     1433.218 ||    0.004111           0.095         4.008       2.832
   34     1435.165 ||    0.000483           0.011         0.471       0.333
   35     1713.915 ||    0.003266           0.075         3.184       2.250
   36     1805.676 ||    0.295888           6.826       288.446     203.813
   37     3028.681 ||    0.008220           0.190         8.013       5.662
   38     3062.399 ||    0.016373           0.378        15.961      11.278
   39     3134.763 ||    0.000933           0.022         0.909       0.642
   40     3140.671 ||    0.005325           0.123         5.191       3.668
   41     3169.988 ||    0.002307           0.053         2.249       1.589
   42     3239.543 ||    0.009509           0.219         9.270       6.550
 ----------------------------------------------------------------------------



 vib:animation  F

 Task  times  cpu:      426.3s     wall:      426.3s


                                NWChem Input Module
                                -------------------


 Summary of allocated global arrays
-----------------------------------
  No active global arrays


MA_summarize_allocated_blocks: starting scan ...
MA_summarize_allocated_blocks: scan completed: 0 heap blocks, 0 stack blocks
MA usage statistics:

	allocation statistics:
					      heap	     stack
					      ----	     -----
	current number of blocks	         0	         0
	maximum number of blocks	        25	        54
	current total bytes		         0	         0
	maximum total bytes		 655026208	  87232648
	maximum total K-bytes		    655027	     87233
	maximum total M-bytes		       656	        88


                                     CITATION
                                     --------
                Please cite the following reference when publishing
                           results obtained with NWChem:

          E. Apra, E. J. Bylaska, W. A. de Jong, N. Govind, K. Kowalski,
       T. P. Straatsma, M. Valiev, H. J. J. van Dam, Y. Alexeev, J. Anchell,
       V. Anisimov, F. W. Aquino, R. Atta-Fynn, J. Autschbach, N. P. Bauman,
     J. C. Becca, D. E. Bernholdt, K. Bhaskaran-Nair, S. Bogatko, P. Borowski,
         J. Boschen, J. Brabec, A. Bruner, E. Cauet, Y. Chen, G. N. Chuev,
      C. J. Cramer, J. Daily, M. J. O. Deegan, T. H. Dunning Jr., M. Dupuis,
   K. G. Dyall, G. I. Fann, S. A. Fischer, A. Fonari, H. Fruchtl, L. Gagliardi,
      J. Garza, N. Gawande, S. Ghosh, K. Glaesemann, A. W. Gotz, J. Hammond,
       V. Helms, E. D. Hermes, K. Hirao, S. Hirata, M. Jacquelin, L. Jensen,
   B. G. Johnson, H. Jonsson, R. A. Kendall, M. Klemm, R. Kobayashi, V. Konkov,
      S. Krishnamoorthy, M. Krishnan, Z. Lin, R. D. Lins, R. J. Littlefield,
      A. J. Logsdail, K. Lopata, W. Ma, A. V. Marenich, J. Martin del Campo,
   D. Mejia-Rodriguez, J. E. Moore, J. M. Mullin, T. Nakajima, D. R. Nascimento,
    J. A. Nichols, P. J. Nichols, J. Nieplocha, A. Otero-de-la-Roza, B. Palmer,
    A. Panyala, T. Pirojsirikul, B. Peng, R. Peverati, J. Pittner, L. Pollack,
   R. M. Richard, P. Sadayappan, G. C. Schatz, W. A. Shelton, D. W. Silverstein,
   D. M. A. Smith, T. A. Soares, D. Song, M. Swart, H. L. Taylor, G. S. Thomas,
            V. Tipparaju, D. G. Truhlar, K. Tsemekhman, T. Van Voorhis,
      A. Vazquez-Mayagoitia, P. Verma, O. Villa, A. Vishnu, K. D. Vogiatzis,
        D. Wang, J. H. Weare, M. J. Williamson, T. L. Windus, K. Wolinski,
        A. T. Wong, Q. Wu, C. Yang, Q. Yu, M. Zacharias, Z. Zhang, Y. Zhao,
                                and R. J. Harrison
                        "NWChem: Past, present, and future
                         J. Chem. Phys. 152, 184102 (2020)
                               doi:10.1063/5.0004997

                                      AUTHORS
                                      -------
  E. Apra, E. J. Bylaska, N. Govind, K. Kowalski, M. Valiev, D. Mejia-Rodriguez,
       A. Kunitsa, N. P. Bauman, A. Panyala, W. A. de Jong, T. P. Straatsma,
   H. J. J. van Dam, D. Wang, T. L. Windus, J. Hammond, J. Autschbach, A. Woods,
    K. Bhaskaran-Nair, J. Brabec, K. Lopata, S. A. Fischer, S. Krishnamoorthy,
     M. Jacquelin, W. Ma, M. Klemm, O. Villa, Y. Chen, V. Anisimov, F. Aquino,
     S. Hirata, M. T. Hackler, E. Hermes, L. Jensen, J. E. Moore, J. C. Becca,
      V. Konjkov, T. Risthaus, M. Malagoli, A. Marenich, A. Otero-de-la-Roza,
        J. Mullin, P. Nichols, R. Peverati, J. Pittner, Y. Zhao, P.-D. Fan,
        A. Fonari, M. J. Williamson, R. J. Harrison, J. R. Rehr, M. Dupuis,
     D. Silverstein, D. M. A. Smith, J. Nieplocha, V. Tipparaju, M. Krishnan,
     B. E. Van Kuiken, A. Vazquez-Mayagoitia, M. Swart, Q. Wu, T. Van Voorhis,
     A. A. Auer, M. Nooijen, L. D. Crosby, E. Brown, G. Cisneros, G. I. Fann,
   H. Fruchtl, J. Garza, K. Hirao, R. A. Kendall, J. A. Nichols, K. Tsemekhman,
    K. Wolinski, J. Anchell, D. E. Bernholdt, P. Borowski, T. Clark, D. Clerc,
   H. Dachsel, M. J. O. Deegan, K. Dyall, D. Elwood, E. Glendening, M. Gutowski,
   A. C. Hess, J. Jaffe, B. G. Johnson, J. Ju, R. Kobayashi, R. Kutteh, Z. Lin,
   R. Littlefield, X. Long, B. Meng, T. Nakajima, S. Niu, L. Pollack, M. Rosing,
   K. Glaesemann, G. Sandrone, M. Stave, H. Taylor, G. Thomas, J. H. van Lenthe,
                               A. T. Wong, Z. Zhang.

 Total times  cpu:      886.1s     wall:      886.1s
